
     Program PWSCF v.6.4.1 starts on 29Apr2021 at  8:45: 5 

     This program is part of the open-source Quantum ESPRESSO suite
     for quantum simulation of materials; please cite
         "P. Giannozzi et al., J. Phys.:Condens. Matter 21 395502 (2009);
         "P. Giannozzi et al., J. Phys.:Condens. Matter 29 465901 (2017);
          URL http://www.quantum-espresso.org", 
     in publications or presentations arising from this work. More details at
     http://www.quantum-espresso.org/quote

     Parallel version (MPI), running on     1 processors

     MPI processes distributed on     1 nodes
     Waiting for input...
     Reading input from standard input

     Current dimensions of program PWSCF are:
     Max number of different atomic species (ntypx) = 10
     Max number of k-points (npk) =  40000
     Max angular momentum in pseudopotentials (lmaxx) =  3

     Atomic positions and unit cell read from directory:
     ./out/aiida.save/

               file Ga.pbe-dn-kjpaw_psl.1.0.0.UPF: wavefunction(s)  4S renormalized

     Subspace diagonalization in iterative solution of the eigenvalue problem:
     a serial algorithm will be used

     Message from routine setup:
     DEPRECATED: symmetry with ibrav=0, use correct ibrav instead

     G-vector sticks info
     --------------------
     sticks:   dense  smooth     PW     G-vecs:    dense   smooth      PW
     Sum        2017    1015    295               339673   120041   18437



     bravais-lattice index     =            0
     lattice parameter (alat)  =       7.2170  a.u.
     unit-cell volume          =    1517.4191 (a.u.)^3
     number of atoms/cell      =            8
     number of atomic types    =            2
     number of electrons       =        76.00
     number of Kohn-Sham states=           38
     kinetic-energy cutoff     =      70.0000  Ry
     charge density cutoff     =     560.0000  Ry
     Exchange-correlation      = SLA  PW   PBE  PBE ( 1  4  3  4 0 0)

     celldm(1)=   7.216990  celldm(2)=   0.000000  celldm(3)=   0.000000
     celldm(4)=   0.000000  celldm(5)=   0.000000  celldm(6)=   0.000000

     crystal axes: (cart. coord. in units of alat)
               a(1) = (  -0.500000  -0.866025   0.000000 )  
               a(2) = (  -0.500000   0.866025   0.000000 )  
               a(3) = (   0.000000   0.000000  -4.661295 )  

     reciprocal axes: (cart. coord. in units 2 pi/alat)
               b(1) = ( -1.000000 -0.577350 -0.000000 )  
               b(2) = ( -1.000000  0.577350  0.000000 )  
               b(3) = ( -0.000000  0.000000 -0.214533 )  


     PseudoPot. # 1 for Ga read from file:
     ./pseudo/Ga.pbe-dn-kjpaw_psl.1.0.0.UPF
     MD5 check sum: a27b4342b1af7e5f338de752e9ed7044
     Pseudo is Projector augmented-wave + core cor, Zval = 13.0
     Generated using "atomic" code by A. Dal Corso v.5.1
     Shape of augmentation charge: PSQ
     Using radial grid of 1205 points,  6 beta functions with: 
                l(1) =   0
                l(2) =   0
                l(3) =   1
                l(4) =   1
                l(5) =   2
                l(6) =   2
     Q(r) pseudized with 0 coefficients 


     PseudoPot. # 2 for Se read from file:
     ./pseudo/Se_pbe_v1.uspp.F.UPF
     MD5 check sum: 1b3568f3a8ae88f9a2a0ad0698632c85
     Pseudo is Ultrasoft + core correction, Zval =  6.0
     Generated by new atomic code, or converted to UPF format
     Using radial grid of  877 points,  6 beta functions with: 
                l(1) =   0
                l(2) =   0
                l(3) =   1
                l(4) =   1
                l(5) =   2
                l(6) =   2
     Q(r) pseudized with  8 coefficients,  rinner =    1.300   1.300   1.300
                                                       1.300   1.300

     atomic species   valence    mass     pseudopotential
        Ga            13.00    69.72300     Ga( 1.00)
        Se             6.00    78.96000     Se( 1.00)

     12 Sym. Ops. (no inversion) found


                                    s                        frac. trans.

      isym =  1     identity                                     

 cryst.   s( 1) = (     1          0          0      )
                  (     0          1          0      )
                  (     0          0          1      )

 cart.    s( 1) = (  1.0000000  0.0000000  0.0000000 )
                  (  0.0000000  1.0000000  0.0000000 )
                  (  0.0000000  0.0000000  1.0000000 )


      isym =  2     180 deg rotation - cart. axis [0,1,0]        

 cryst.   s( 2) = (     0         -1          0      )
                  (    -1          0          0      )
                  (     0          0         -1      )

 cart.    s( 2) = ( -1.0000000  0.0000000  0.0000000 )
                  (  0.0000000  1.0000000  0.0000000 )
                  (  0.0000000  0.0000000 -1.0000000 )


      isym =  3     120 deg rotation - cryst. axis [0,0,1]       

 cryst.   s( 3) = (    -1         -1          0      )
                  (     1          0          0      )
                  (     0          0          1      )

 cart.    s( 3) = ( -0.5000000 -0.8660254  0.0000000 )
                  (  0.8660254 -0.5000000  0.0000000 )
                  (  0.0000000  0.0000000  1.0000000 )


      isym =  4     120 deg rotation - cryst. axis [0,0,-1]      

 cryst.   s( 4) = (     0          1          0      )
                  (    -1         -1          0      )
                  (     0          0          1      )

 cart.    s( 4) = ( -0.5000000  0.8660254  0.0000000 )
                  ( -0.8660254 -0.5000000  0.0000000 )
                  (  0.0000000  0.0000000  1.0000000 )


      isym =  5     180 deg rotation - cryst. axis [1,-1,0]      

 cryst.   s( 5) = (    -1          0          0      )
                  (     1          1          0      )
                  (     0          0         -1      )

 cart.    s( 5) = (  0.5000000 -0.8660254  0.0000000 )
                  ( -0.8660254 -0.5000000  0.0000000 )
                  (  0.0000000  0.0000000 -1.0000000 )


      isym =  6     180 deg rotation - cryst. axis [2,1,0]       

 cryst.   s( 6) = (     1          1          0      )
                  (     0         -1          0      )
                  (     0          0         -1      )

 cart.    s( 6) = (  0.5000000  0.8660254  0.0000000 )
                  (  0.8660254 -0.5000000  0.0000000 )
                  (  0.0000000  0.0000000 -1.0000000 )


      isym =  7     inv. 180 deg rotation - cart. axis [0,0,1]   

 cryst.   s( 7) = (     1          0          0      )
                  (     0          1          0      )
                  (     0          0         -1      )

 cart.    s( 7) = (  1.0000000  0.0000000  0.0000000 )
                  (  0.0000000  1.0000000  0.0000000 )
                  (  0.0000000  0.0000000 -1.0000000 )


      isym =  8     inv. 180 deg rotation - cart. axis [1,0,0]   

 cryst.   s( 8) = (     0         -1          0      )
                  (    -1          0          0      )
                  (     0          0          1      )

 cart.    s( 8) = ( -1.0000000  0.0000000  0.0000000 )
                  (  0.0000000  1.0000000  0.0000000 )
                  (  0.0000000  0.0000000  1.0000000 )


      isym =  9     inv.  60 deg rotation - cryst. axis [0,0,1]  

 cryst.   s( 9) = (     0          1          0      )
                  (    -1         -1          0      )
                  (     0          0         -1      )

 cart.    s( 9) = ( -0.5000000  0.8660254  0.0000000 )
                  ( -0.8660254 -0.5000000  0.0000000 )
                  (  0.0000000  0.0000000 -1.0000000 )


      isym = 10     inv.  60 deg rotation - cryst. axis [0,0,-1] 

 cryst.   s(10) = (    -1         -1          0      )
                  (     1          0          0      )
                  (     0          0         -1      )

 cart.    s(10) = ( -0.5000000 -0.8660254  0.0000000 )
                  (  0.8660254 -0.5000000  0.0000000 )
                  (  0.0000000  0.0000000 -1.0000000 )


      isym = 11     inv. 180 deg rotation - cryst. axis [0,1,0]  

 cryst.   s(11) = (     1          1          0      )
                  (     0         -1          0      )
                  (     0          0          1      )

 cart.    s(11) = (  0.5000000  0.8660254  0.0000000 )
                  (  0.8660254 -0.5000000  0.0000000 )
                  (  0.0000000  0.0000000  1.0000000 )


      isym = 12     inv. 180 deg rotation - cryst. axis [1,1,0]  

 cryst.   s(12) = (    -1          0          0      )
                  (     1          1          0      )
                  (     0          0          1      )

 cart.    s(12) = (  0.5000000 -0.8660254  0.0000000 )
                  ( -0.8660254 -0.5000000  0.0000000 )
                  (  0.0000000  0.0000000  1.0000000 )


   Cartesian axes

     site n.     atom                  positions (alat units)
         1           Ga  tau(   1) = (   0.0000000   0.0000000  -4.3377730  )
         2           Ga  tau(   2) = (   0.0000000   0.0000000  -0.3235218  )
         3           Ga  tau(   3) = (  -0.5000000   0.2886751  -2.6541413  )
         4           Ga  tau(   4) = (  -0.5000000   0.2886751  -2.0071536  )
         5           Se  tau(   5) = (  -0.5000000   0.2886751  -0.6306685  )
         6           Se  tau(   6) = (  -0.5000000   0.2886751  -4.0306263  )
         7           Se  tau(   7) = (  -0.5000000  -0.2886751  -1.6999416  )
         8           Se  tau(   8) = (  -0.5000000  -0.2886751  -2.9613532  )

   Crystallographic axes

     site n.     atom                  positions (cryst. coord.)
         1           Ga  tau(   1) = (  0.0000000  0.0000000  0.9305940  )
         2           Ga  tau(   2) = (  0.0000000  0.0000000  0.0694060  )
         3           Ga  tau(   3) = (  0.3333333  0.6666667  0.5694000  )
         4           Ga  tau(   4) = (  0.3333333  0.6666667  0.4306000  )
         5           Se  tau(   5) = (  0.3333333  0.6666667  0.1352990  )
         6           Se  tau(   6) = (  0.3333333  0.6666667  0.8647010  )
         7           Se  tau(   7) = (  0.6666667  0.3333333  0.3646930  )
         8           Se  tau(   8) = (  0.6666667  0.3333333  0.6353070  )

     number of k points=    37  Marzari-Vanderbilt smearing, width (Ry)=  0.0220
                       cart. coord. in units 2pi/alat
        k(    1) = (  -0.0000000   0.0000000   0.0000000), wk =   0.0540541
        k(    2) = (  -0.0666680  -0.1154701  -0.0000000), wk =   0.0540541
        k(    3) = (  -0.1333360  -0.2309401  -0.0000000), wk =   0.0540541
        k(    4) = (  -0.2000040  -0.3464102  -0.0000000), wk =   0.0540541
        k(    5) = (  -0.2666720  -0.4618802  -0.0000000), wk =   0.0540541
        k(    6) = (  -0.3333400  -0.5773503  -0.0000000), wk =   0.0540541
        k(    7) = (  -0.3888933  -0.4811252  -0.0000000), wk =   0.0540541
        k(    8) = (  -0.4444467  -0.3849002  -0.0000000), wk =   0.0540541
        k(    9) = (  -0.5000000  -0.2886751   0.0000000), wk =   0.0540541
        k(   10) = (  -0.5000000  -0.2886751  -0.1072663), wk =   0.0540541
        k(   11) = (  -0.4444467  -0.3849002  -0.1072663), wk =   0.0540541
        k(   12) = (  -0.3888933  -0.4811252  -0.1072663), wk =   0.0540541
        k(   13) = (  -0.3333400  -0.5773503  -0.1072663), wk =   0.0540541
        k(   14) = (  -0.2666720  -0.4618802  -0.1072663), wk =   0.0540541
        k(   15) = (  -0.2000040  -0.3464102  -0.1072663), wk =   0.0540541
        k(   16) = (  -0.1333360  -0.2309401  -0.1072663), wk =   0.0540541
        k(   17) = (  -0.0666680  -0.1154701  -0.1072663), wk =   0.0540541
        k(   18) = (  -0.0000000   0.0000000  -0.1072663), wk =   0.0540541
        k(   19) = (  -0.0000000   0.0000000   0.0000000), wk =   0.0540541
        k(   20) = (  -0.1000000   0.0577350   0.0000000), wk =   0.0540541
        k(   21) = (  -0.2000000   0.1154701   0.0000000), wk =   0.0540541
        k(   22) = (  -0.3000000   0.1732051   0.0000000), wk =   0.0540541
        k(   23) = (  -0.4000000   0.2309401   0.0000000), wk =   0.0540541
        k(   24) = (  -0.5000000   0.2886751   0.0000000), wk =   0.0540541
        k(   25) = (  -0.5555533   0.1924501   0.0000000), wk =   0.0540541
        k(   26) = (  -0.6111067   0.0962250   0.0000000), wk =   0.0540541
        k(   27) = (  -0.6666600   0.0000000   0.0000000), wk =   0.0540541
        k(   28) = (  -0.6666600   0.0000000  -0.1072663), wk =   0.0540541
        k(   29) = (  -0.6111067   0.0962250  -0.1072663), wk =   0.0540541
        k(   30) = (  -0.5555533   0.1924501  -0.1072663), wk =   0.0540541
        k(   31) = (  -0.5000000   0.2886751  -0.1072663), wk =   0.0540541
        k(   32) = (  -0.4000000   0.2309401  -0.1072663), wk =   0.0540541
        k(   33) = (  -0.3000000   0.1732051  -0.1072663), wk =   0.0540541
        k(   34) = (  -0.2000000   0.1154701  -0.1072663), wk =   0.0540541
        k(   35) = (  -0.1000000   0.0577350  -0.1072663), wk =   0.0540541
        k(   36) = (  -0.0000000   0.0000000  -0.1072663), wk =   0.0540541
        k(   37) = (   0.0000000   0.0000000   0.0000000), wk =   0.0540541

                       cryst. coord.
        k(    1) = (   0.0000000   0.0000000   0.0000000), wk =   0.0540541
        k(    2) = (   0.1333340  -0.0666660   0.0000000), wk =   0.0540541
        k(    3) = (   0.2666680  -0.1333320   0.0000000), wk =   0.0540541
        k(    4) = (   0.4000020  -0.1999980   0.0000000), wk =   0.0540541
        k(    5) = (   0.5333360  -0.2666640   0.0000000), wk =   0.0540541
        k(    6) = (   0.6666700  -0.3333300   0.0000000), wk =   0.0540541
        k(    7) = (   0.6111133  -0.2222200   0.0000000), wk =   0.0540541
        k(    8) = (   0.5555567  -0.1111100   0.0000000), wk =   0.0540541
        k(    9) = (   0.5000000   0.0000000  -0.0000000), wk =   0.0540541
        k(   10) = (   0.5000000   0.0000000   0.5000000), wk =   0.0540541
        k(   11) = (   0.5555567  -0.1111100   0.5000000), wk =   0.0540541
        k(   12) = (   0.6111133  -0.2222200   0.5000000), wk =   0.0540541
        k(   13) = (   0.6666700  -0.3333300   0.5000000), wk =   0.0540541
        k(   14) = (   0.5333360  -0.2666640   0.5000000), wk =   0.0540541
        k(   15) = (   0.4000020  -0.1999980   0.5000000), wk =   0.0540541
        k(   16) = (   0.2666680  -0.1333320   0.5000000), wk =   0.0540541
        k(   17) = (   0.1333340  -0.0666660   0.5000000), wk =   0.0540541
        k(   18) = (   0.0000000   0.0000000   0.5000000), wk =   0.0540541
        k(   19) = (   0.0000000   0.0000000   0.0000000), wk =   0.0540541
        k(   20) = (   0.0000000   0.1000000   0.0000000), wk =   0.0540541
        k(   21) = (   0.0000000   0.2000000   0.0000000), wk =   0.0540541
        k(   22) = (   0.0000000   0.3000000   0.0000000), wk =   0.0540541
        k(   23) = (   0.0000000   0.4000000   0.0000000), wk =   0.0540541
        k(   24) = (   0.0000000   0.5000000   0.0000000), wk =   0.0540541
        k(   25) = (   0.1111100   0.4444433   0.0000000), wk =   0.0540541
        k(   26) = (   0.2222200   0.3888867   0.0000000), wk =   0.0540541
        k(   27) = (   0.3333300   0.3333300   0.0000000), wk =   0.0540541
        k(   28) = (   0.3333300   0.3333300   0.5000000), wk =   0.0540541
        k(   29) = (   0.2222200   0.3888867   0.5000000), wk =   0.0540541
        k(   30) = (   0.1111100   0.4444433   0.5000000), wk =   0.0540541
        k(   31) = (   0.0000000   0.5000000   0.5000000), wk =   0.0540541
        k(   32) = (   0.0000000   0.4000000   0.5000000), wk =   0.0540541
        k(   33) = (   0.0000000   0.3000000   0.5000000), wk =   0.0540541
        k(   34) = (   0.0000000   0.2000000   0.5000000), wk =   0.0540541
        k(   35) = (   0.0000000   0.1000000   0.5000000), wk =   0.0540541
        k(   36) = (   0.0000000   0.0000000   0.5000000), wk =   0.0540541
        k(   37) = (   0.0000000   0.0000000   0.0000000), wk =   0.0540541

     Dense  grid:   339673 G-vectors     FFT dimensions: (  60,  60, 256)

     Smooth grid:   120041 G-vectors     FFT dimensions: (  40,  40, 180)

     Dynamical RAM for                 wfc:       8.70 MB

     Dynamical RAM for     wfc (w. buffer):       8.70 MB

     Dynamical RAM for           str. fact:      10.37 MB

     Dynamical RAM for           local pot:       0.00 MB

     Dynamical RAM for          nlocal pot:      32.97 MB

     Dynamical RAM for                qrad:       4.36 MB

     Dynamical RAM for          rho,v,vnew:      36.64 MB

     Dynamical RAM for           G-vectors:      20.35 MB

     Dynamical RAM for          h,s,v(r/c):       1.06 MB

     Dynamical RAM for          <psi|beta>:       0.08 MB

     Dynamical RAM for                 psi:      34.81 MB

     Dynamical RAM for                hpsi:      34.81 MB

     Dynamical RAM for                spsi:      34.81 MB

     Dynamical RAM for      wfcinit/wfcrot:      23.88 MB

     Dynamical RAM for           addusdens:     984.77 MB

     Estimated static dynamical RAM per process >     164.10 MB

     Estimated max dynamical RAM per process >       1.12 GB

     The potential is recalculated from file :
     ./out/aiida.save/charge-density

     Starting wfcs are   52 randomized atomic wfcs
     Checking if some PAW data can be deallocated... 

     Band Structure Calculation
     Davidson diagonalization with overlap

     Computing kpt #:     1
     total cpu time spent up to now is       67.5 secs

     Computing kpt #:     2
     total cpu time spent up to now is      129.8 secs

     Computing kpt #:     3
     total cpu time spent up to now is      191.8 secs

     Computing kpt #:     4
     total cpu time spent up to now is      249.0 secs

     Computing kpt #:     5
     total cpu time spent up to now is      303.7 secs

     Computing kpt #:     6
     total cpu time spent up to now is      359.3 secs

     Computing kpt #:     7
     total cpu time spent up to now is      414.2 secs

     Computing kpt #:     8
     total cpu time spent up to now is      473.5 secs

     Computing kpt #:     9
     total cpu time spent up to now is      531.5 secs

     Computing kpt #:    10
     total cpu time spent up to now is      587.5 secs

     Computing kpt #:    11
     total cpu time spent up to now is      644.3 secs

     Computing kpt #:    12
     total cpu time spent up to now is      700.0 secs

     Computing kpt #:    13
     total cpu time spent up to now is      755.8 secs

     Computing kpt #:    14
     total cpu time spent up to now is      813.3 secs

     Computing kpt #:    15
     total cpu time spent up to now is      873.1 secs

     Computing kpt #:    16
     total cpu time spent up to now is      933.9 secs

     Computing kpt #:    17
     total cpu time spent up to now is      993.1 secs

     Computing kpt #:    18
     total cpu time spent up to now is     1052.2 secs

     Computing kpt #:    19
     total cpu time spent up to now is     1102.7 secs

     Computing kpt #:    20
     total cpu time spent up to now is     1157.1 secs

     Computing kpt #:    21
     total cpu time spent up to now is     1211.3 secs

     Computing kpt #:    22
     total cpu time spent up to now is     1264.1 secs

     Computing kpt #:    23
     total cpu time spent up to now is     1319.0 secs

     Computing kpt #:    24
     total cpu time spent up to now is     1370.9 secs

     Computing kpt #:    25
     total cpu time spent up to now is     1424.3 secs

     Computing kpt #:    26
     total cpu time spent up to now is     1476.3 secs

     Computing kpt #:    27
     total cpu time spent up to now is     1529.1 secs

     Computing kpt #:    28
     total cpu time spent up to now is     1582.2 secs

     Computing kpt #:    29
     total cpu time spent up to now is     1635.0 secs

     Computing kpt #:    30
     total cpu time spent up to now is     1686.5 secs

     Computing kpt #:    31
     total cpu time spent up to now is     1747.2 secs

     Computing kpt #:    32
     total cpu time spent up to now is     1814.1 secs

     Computing kpt #:    33
     total cpu time spent up to now is     1875.2 secs

     Computing kpt #:    34
     total cpu time spent up to now is     1934.2 secs

     Computing kpt #:    35
     total cpu time spent up to now is     1995.7 secs

     Computing kpt #:    36
     total cpu time spent up to now is     2053.6 secs

     Computing kpt #:    37
     total cpu time spent up to now is     2107.5 secs

     ethr =  2.11E-12,  avg # of iterations = 40.6

     total cpu time spent up to now is     2107.5 secs

     End of band structure calculation

          k =-0.0000 0.0000 0.0000 ( 15101 PWs)   bands (ev):

   -10.3581 -10.3566 -10.2459 -10.2459 -10.2445 -10.2445 -10.1926 -10.1926
   -10.1913 -10.1913 -10.1912 -10.1912 -10.1898 -10.1898 -10.0477 -10.0477
   -10.0463 -10.0463 -10.0317 -10.0301  -9.1972  -9.1617  -9.0042  -8.9656
    -2.0227  -1.9142   0.4938   0.8675   3.3567   3.3567   3.3745   3.3745
     3.4783   3.4783   3.4974   3.4974   3.5442   4.3189

          k =-0.0667-0.1155-0.0000 ( 15069 PWs)   bands (ev):

   -10.3589 -10.3574 -10.2732 -10.2717 -10.2443 -10.2429 -10.2228 -10.2213
   -10.1930 -10.1916 -10.1885 -10.1879 -10.1871 -10.1865 -10.0709 -10.0695
   -10.0485 -10.0472  -9.9986  -9.9973  -9.0577  -9.0235  -8.8760  -8.8387
    -1.9607  -1.8671   0.4900   0.7603   2.4132   2.5282   2.5758   2.7679
     3.1236   3.1414   3.2762   3.2957   3.7559   4.3122

          k =-0.1333-0.2309-0.0000 ( 15001 PWs)   bands (ev):

   -10.3711 -10.3696 -10.3141 -10.3125 -10.2810 -10.2793 -10.2429 -10.2414
   -10.1967 -10.1953 -10.1812 -10.1798 -10.1767 -10.1753 -10.0835 -10.0822
   -10.0512 -10.0498  -9.9678  -9.9665  -8.6941  -8.6633  -8.5382  -8.5047
    -1.8900  -1.8459   0.0965   0.1170   1.2952   1.4629   1.7994   2.2487
     2.4279   2.4467   2.6741   2.6949   3.7770   4.0801

          k =-0.2000-0.3464-0.0000 ( 15030 PWs)   bands (ev):

   -10.4024 -10.4009 -10.3283 -10.3268 -10.3247 -10.3231 -10.2452 -10.2438
   -10.1987 -10.1973 -10.1735 -10.1722 -10.1658 -10.1645 -10.0870 -10.0856
   -10.0559 -10.0546  -9.9475  -9.9462  -8.2288  -8.2041  -8.1075  -8.0813
    -2.0970  -2.0916  -0.8123  -0.7909   0.9650   1.1779   1.4724   1.4933
     1.8163   1.8344   1.9912   2.3917   3.5035   3.5595

          k =-0.2667-0.4619-0.0000 ( 15012 PWs)   bands (ev):

   -10.4231 -10.4218 -10.3536 -10.3523 -10.3246 -10.3230 -10.2501 -10.2487
   -10.1965 -10.1951 -10.1716 -10.1702 -10.1604 -10.1591 -10.0834 -10.0820
   -10.0627 -10.0613  -9.9370  -9.9357  -7.8425  -7.8290  -7.7560  -7.7420
    -2.4139  -2.4061  -1.3689  -1.3619   0.6263   0.6391   1.0137   1.0306
     1.4162   1.5994   2.3877   2.6065   2.8876   2.9502

          k =-0.3333-0.5774-0.0000 ( 14946 PWs)   bands (ev):

   -10.4279 -10.4266 -10.3600 -10.3588 -10.3242 -10.3227 -10.2529 -10.2515
   -10.1931 -10.1916 -10.1740 -10.1726 -10.1598 -10.1584 -10.0777 -10.0763
   -10.0687 -10.0674  -9.9344  -9.9330  -7.7047  -7.7040  -7.6316  -7.6310
    -2.4866  -2.4859  -1.4699  -1.4696   0.2662   0.2673   0.6431   0.6453
     1.9284   1.9407   2.4968   2.5079   2.6160   2.6199

          k =-0.3889-0.4811-0.0000 ( 14986 PWs)   bands (ev):

   -10.4273 -10.4260 -10.3580 -10.3567 -10.3243 -10.3227 -10.2504 -10.2490
   -10.1972 -10.1958 -10.1700 -10.1686 -10.1589 -10.1576 -10.0833 -10.0820
   -10.0635 -10.0621  -9.9353  -9.9340  -7.7655  -7.7574  -7.6869  -7.6785
    -2.5074  -2.5047  -1.5097  -1.5010   0.5274   0.5451   0.9584   0.9853
     1.6902   1.7983   2.5012   2.6233   2.6580   2.6667

          k =-0.4444-0.3849-0.0000 ( 14990 PWs)   bands (ev):

   -10.4278 -10.4264 -10.3553 -10.3540 -10.3242 -10.3226 -10.2445 -10.2431
   -10.2043 -10.2029 -10.1631 -10.1617 -10.1556 -10.1543 -10.0912 -10.0898
   -10.0571 -10.0557  -9.9367  -9.9353  -7.8603  -7.8480  -7.7731  -7.7603
    -2.5777  -2.5709  -1.6133  -1.5974   0.9616   0.9868   1.7344   1.7726
     1.7756   1.8186   2.3840   2.5460   2.7196   2.7758

          k =-0.5000-0.2887 0.0000 ( 14962 PWs)   bands (ev):

   -10.4285 -10.4271 -10.3544 -10.3530 -10.3241 -10.3225 -10.2412 -10.2397
   -10.2075 -10.2061 -10.1599 -10.1586 -10.1533 -10.1520 -10.0948 -10.0935
   -10.0546 -10.0532  -9.9373  -9.9359  -7.9018  -7.8882  -7.8111  -7.7970
    -2.6153  -2.6069  -1.6638  -1.6459   1.0080   1.0801   2.0868   2.1199
     2.2478   2.3243   2.3628   2.3971   2.6993   2.7908

          k =-0.5000-0.2887-0.1073 ( 15004 PWs)   bands (ev):

   -10.4285 -10.4272 -10.3543 -10.3531 -10.3241 -10.3225 -10.2412 -10.2397
   -10.2075 -10.2061 -10.1599 -10.1586 -10.1533 -10.1520 -10.0948 -10.0935
   -10.0546 -10.0532  -9.9373  -9.9359  -7.8958  -7.8952  -7.8038  -7.8032
    -2.6115  -2.6107  -1.6551  -1.6548   1.0409   1.0471   2.1019   2.1022
     2.2908   2.3255   2.3447   2.3450   2.7438   2.7788

          k =-0.4444-0.3849-0.1073 ( 14982 PWs)   bands (ev):

   -10.4277 -10.4265 -10.3552 -10.3541 -10.3242 -10.3226 -10.2445 -10.2431
   -10.2043 -10.2029 -10.1631 -10.1617 -10.1556 -10.1543 -10.0912 -10.0898
   -10.0571 -10.0557  -9.9367  -9.9353  -7.8549  -7.8543  -7.7666  -7.7660
    -2.5747  -2.5739  -1.6056  -1.6052   0.9732   0.9774   1.7398   1.7541
     1.7923   1.8092   2.4312   2.4683   2.7485   2.7841

          k =-0.3889-0.4811-0.1073 ( 14976 PWs)   bands (ev):

   -10.4273 -10.4260 -10.3579 -10.3568 -10.3243 -10.3227 -10.2504 -10.2490
   -10.1972 -10.1958 -10.1700 -10.1686 -10.1589 -10.1575 -10.0833 -10.0820
   -10.0635 -10.0621  -9.9353  -9.9340  -7.7620  -7.7613  -7.6828  -7.6821
    -2.5064  -2.5057  -1.5056  -1.5052   0.5363   0.5363   0.9706   0.9723
     1.7419   1.7449   2.5314   2.5379   2.6910   2.6934

          k =-0.3333-0.5774-0.1073 ( 14982 PWs)   bands (ev):

   -10.4279 -10.4266 -10.3600 -10.3588 -10.3242 -10.3226 -10.2529 -10.2515
   -10.1931 -10.1917 -10.1740 -10.1726 -10.1598 -10.1584 -10.0777 -10.0763
   -10.0687 -10.0674  -9.9344  -9.9330  -7.7047  -7.7040  -7.6316  -7.6310
    -2.4866  -2.4859  -1.4700  -1.4696   0.2665   0.2677   0.6422   0.6447
     1.9394   1.9430   2.4425   2.4973   2.6174   2.6723

          k =-0.2667-0.4619-0.1073 ( 15020 PWs)   bands (ev):

   -10.4231 -10.4219 -10.3535 -10.3524 -10.3246 -10.3230 -10.2501 -10.2487
   -10.1965 -10.1951 -10.1716 -10.1702 -10.1604 -10.1591 -10.0834 -10.0820
   -10.0627 -10.0613  -9.9370  -9.9357  -7.8366  -7.8360  -7.7487  -7.7481
    -2.4104  -2.4097  -1.3656  -1.3652   0.6327   0.6335   1.0195   1.0225
     1.4985   1.5000   2.5029   2.5074   2.9195   2.9208

          k =-0.2000-0.3464-0.1073 ( 15020 PWs)   bands (ev):

   -10.4023 -10.4010 -10.3281 -10.3270 -10.3247 -10.3231 -10.2452 -10.2438
   -10.1987 -10.1973 -10.1735 -10.1722 -10.1658 -10.1644 -10.0870 -10.0856
   -10.0559 -10.0546  -9.9475  -9.9462  -8.2180  -8.2175  -8.0934  -8.0928
    -2.0948  -2.0938  -0.8017  -0.8014   1.0538   1.0563   1.4823   1.4827
     1.8292   1.8292   2.1952   2.1999   3.5355   3.5400

          k =-0.1333-0.2309-0.1073 ( 15016 PWs)   bands (ev):

   -10.3710 -10.3696 -10.3141 -10.3126 -10.2807 -10.2795 -10.2429 -10.2414
   -10.1967 -10.1953 -10.1812 -10.1798 -10.1767 -10.1753 -10.0835 -10.0822
   -10.0512 -10.0498  -9.9678  -9.9665  -8.6806  -8.6801  -8.5201  -8.5196
    -1.8690  -1.8675   0.1068   0.1070   1.3558   1.3569   2.0321   2.0351
     2.4367   2.4375   2.6844   2.6846   3.9420   3.9445

          k =-0.0667-0.1155-0.1073 ( 15058 PWs)   bands (ev):

   -10.3589 -10.3574 -10.2732 -10.2718 -10.2443 -10.2429 -10.2227 -10.2214
   -10.1930 -10.1916 -10.1885 -10.1879 -10.1871 -10.1865 -10.0709 -10.0695
   -10.0485 -10.0472  -9.9986  -9.9973  -9.0425  -9.0421  -8.8559  -8.8554
    -1.9163  -1.9146   0.6221   0.6226   2.4574   2.4575   2.6747   2.6757
     3.1318   3.1323   3.2863   3.2866   4.0346   4.0357

          k =-0.0000 0.0000-0.1073 ( 15042 PWs)   bands (ev):

   -10.3581 -10.3566 -10.2459 -10.2459 -10.2445 -10.2445 -10.1926 -10.1926
   -10.1913 -10.1913 -10.1912 -10.1912 -10.1898 -10.1898 -10.0477 -10.0477
   -10.0463 -10.0463 -10.0315 -10.0303  -9.1814  -9.1810  -8.9834  -8.9829
    -1.9714  -1.9697   0.6715   0.6722   3.3647   3.3647   3.3651   3.3651
     3.4883   3.4883   3.4887   3.4887   3.8955   3.8962

          k =-0.0000 0.0000 0.0000 ( 15101 PWs)   bands (ev):

   -10.3581 -10.3566 -10.2459 -10.2459 -10.2445 -10.2445 -10.1926 -10.1926
   -10.1913 -10.1913 -10.1912 -10.1912 -10.1898 -10.1898 -10.0477 -10.0477
   -10.0463 -10.0463 -10.0317 -10.0301  -9.1972  -9.1617  -9.0042  -8.9656
    -2.0227  -1.9142   0.4938   0.8675   3.3567   3.3567   3.3745   3.3745
     3.4783   3.4783   3.4974   3.4974   3.5442   4.3189

          k =-0.1000 0.0577 0.0000 ( 15075 PWs)   bands (ev):

   -10.3585 -10.3570 -10.2673 -10.2658 -10.2446 -10.2432 -10.2160 -10.2146
   -10.1927 -10.1913 -10.1891 -10.1890 -10.1877 -10.1876 -10.0682 -10.0668
   -10.0483 -10.0469 -10.0036 -10.0023  -9.0915  -9.0571  -8.9072  -8.8696
    -1.9746  -1.8771   0.4962   0.7942   2.5740   2.6809   2.7349   2.8882
     3.1955   3.2179   3.3361   3.3606   3.7367   4.3214

          k =-0.2000 0.1155 0.0000 ( 15007 PWs)   bands (ev):

   -10.3657 -10.3642 -10.3060 -10.3044 -10.2658 -10.2642 -10.2423 -10.2409
   -10.1967 -10.1953 -10.1825 -10.1811 -10.1793 -10.1779 -10.0818 -10.0804
   -10.0499 -10.0486  -9.9750  -9.9737  -8.8079  -8.7760  -8.6441  -8.6093
    -1.8966  -1.8365   0.2647   0.3333   1.4663   1.6102   1.8457   2.2495
     2.8287   2.8571   3.0070   3.0387   3.7700   4.1489

          k =-0.3000 0.1732 0.0000 ( 15019 PWs)   bands (ev):

   -10.3919 -10.3903 -10.3228 -10.3213 -10.3129 -10.3112 -10.2411 -10.2396
   -10.2018 -10.2004 -10.1726 -10.1712 -10.1671 -10.1658 -10.0892 -10.0878
   -10.0521 -10.0507  -9.9544  -9.9531  -8.4233  -8.3957  -8.2869  -8.2573
    -2.0137  -2.0006  -0.5759  -0.5428   0.7919   0.9732   1.7787   2.2079
     2.4489   2.4804   2.6597   2.6957   3.5528   3.7010

          k =-0.4000 0.2309 0.0000 ( 14966 PWs)   bands (ev):

   -10.4185 -10.4171 -10.3438 -10.3423 -10.3244 -10.3228 -10.2410 -10.2396
   -10.2059 -10.2045 -10.1636 -10.1622 -10.1572 -10.1558 -10.0934 -10.0920
   -10.0538 -10.0525  -9.9416  -9.9403  -8.0605  -8.0404  -7.9544  -7.9333
    -2.4047  -2.3883  -1.3602  -1.3335   0.8034   0.9623   2.0631   2.1817
     2.2144   2.3511   2.4125   2.4504   3.0250   3.1227

          k =-0.5000 0.2887 0.0000 ( 14962 PWs)   bands (ev):

   -10.4285 -10.4271 -10.3544 -10.3530 -10.3241 -10.3225 -10.2412 -10.2397
   -10.2075 -10.2061 -10.1599 -10.1586 -10.1533 -10.1520 -10.0948 -10.0935
   -10.0546 -10.0532  -9.9373  -9.9359  -7.9018  -7.8882  -7.8111  -7.7970
    -2.6153  -2.6069  -1.6638  -1.6459   1.0080   1.0801   2.0868   2.1199
     2.2478   2.3243   2.3628   2.3971   2.6993   2.7908

          k =-0.5556 0.1925 0.0000 ( 14990 PWs)   bands (ev):

   -10.4278 -10.4264 -10.3553 -10.3540 -10.3242 -10.3226 -10.2445 -10.2431
   -10.2043 -10.2029 -10.1631 -10.1617 -10.1556 -10.1543 -10.0912 -10.0898
   -10.0571 -10.0557  -9.9367  -9.9353  -7.8603  -7.8480  -7.7731  -7.7603
    -2.5777  -2.5709  -1.6133  -1.5974   0.9616   0.9868   1.7344   1.7726
     1.7756   1.8186   2.3840   2.5460   2.7196   2.7758

          k =-0.6111 0.0962 0.0000 ( 14986 PWs)   bands (ev):

   -10.4273 -10.4260 -10.3580 -10.3567 -10.3243 -10.3227 -10.2504 -10.2490
   -10.1972 -10.1958 -10.1700 -10.1686 -10.1589 -10.1576 -10.0833 -10.0820
   -10.0635 -10.0621  -9.9353  -9.9340  -7.7655  -7.7574  -7.6869  -7.6785
    -2.5074  -2.5047  -1.5097  -1.5010   0.5274   0.5451   0.9584   0.9853
     1.6902   1.7983   2.5012   2.6233   2.6580   2.6667

          k =-0.6667 0.0000 0.0000 ( 14946 PWs)   bands (ev):

   -10.4279 -10.4266 -10.3600 -10.3588 -10.3242 -10.3227 -10.2529 -10.2515
   -10.1931 -10.1916 -10.1740 -10.1726 -10.1598 -10.1584 -10.0777 -10.0763
   -10.0687 -10.0674  -9.9344  -9.9330  -7.7047  -7.7040  -7.6316  -7.6310
    -2.4866  -2.4859  -1.4699  -1.4696   0.2662   0.2673   0.6431   0.6453
     1.9284   1.9407   2.4968   2.5079   2.6160   2.6199

          k =-0.6667 0.0000-0.1073 ( 14982 PWs)   bands (ev):

   -10.4279 -10.4266 -10.3600 -10.3588 -10.3242 -10.3226 -10.2529 -10.2515
   -10.1931 -10.1917 -10.1740 -10.1726 -10.1598 -10.1584 -10.0777 -10.0763
   -10.0687 -10.0674  -9.9344  -9.9330  -7.7047  -7.7040  -7.6316  -7.6310
    -2.4866  -2.4859  -1.4700  -1.4696   0.2665   0.2677   0.6422   0.6447
     1.9394   1.9430   2.4425   2.4973   2.6174   2.6723

          k =-0.6111 0.0962-0.1073 ( 14976 PWs)   bands (ev):

   -10.4273 -10.4260 -10.3579 -10.3568 -10.3243 -10.3227 -10.2504 -10.2490
   -10.1972 -10.1958 -10.1700 -10.1686 -10.1589 -10.1575 -10.0833 -10.0820
   -10.0635 -10.0621  -9.9353  -9.9340  -7.7620  -7.7613  -7.6828  -7.6821
    -2.5064  -2.5057  -1.5056  -1.5052   0.5363   0.5363   0.9706   0.9723
     1.7419   1.7449   2.5314   2.5379   2.6910   2.6934

          k =-0.5556 0.1925-0.1073 ( 14982 PWs)   bands (ev):

   -10.4277 -10.4265 -10.3552 -10.3541 -10.3242 -10.3226 -10.2445 -10.2431
   -10.2043 -10.2029 -10.1631 -10.1617 -10.1556 -10.1543 -10.0912 -10.0898
   -10.0571 -10.0557  -9.9367  -9.9353  -7.8549  -7.8543  -7.7666  -7.7660
    -2.5747  -2.5739  -1.6056  -1.6052   0.9732   0.9774   1.7398   1.7541
     1.7923   1.8092   2.4312   2.4683   2.7485   2.7841

          k =-0.5000 0.2887-0.1073 ( 15004 PWs)   bands (ev):

   -10.4285 -10.4272 -10.3543 -10.3531 -10.3241 -10.3225 -10.2412 -10.2397
   -10.2075 -10.2061 -10.1599 -10.1586 -10.1533 -10.1520 -10.0948 -10.0935
   -10.0546 -10.0532  -9.9373  -9.9359  -7.8958  -7.8952  -7.8038  -7.8032
    -2.6115  -2.6107  -1.6551  -1.6548   1.0409   1.0471   2.1019   2.1022
     2.2908   2.3255   2.3447   2.3450   2.7438   2.7788

          k =-0.4000 0.2309-0.1073 ( 14998 PWs)   bands (ev):

   -10.4184 -10.4172 -10.3436 -10.3425 -10.3244 -10.3228 -10.2410 -10.2396
   -10.2059 -10.2045 -10.1636 -10.1622 -10.1572 -10.1558 -10.0934 -10.0920
   -10.0538 -10.0525  -9.9416  -9.9403  -8.0517  -8.0511  -7.9432  -7.9426
    -2.3970  -2.3962  -1.3470  -1.3466   0.8743   0.8784   2.1965   2.1969
     2.2007   2.2145   2.4326   2.4329   3.0720   3.0871

          k =-0.3000 0.1732-0.1073 ( 15026 PWs)   bands (ev):

   -10.3917 -10.3905 -10.3228 -10.3213 -10.3126 -10.3114 -10.2411 -10.2396
   -10.2018 -10.2004 -10.1726 -10.1712 -10.1671 -10.1658 -10.0892 -10.0878
   -10.0521 -10.0507  -9.9544  -9.9531  -8.4112  -8.4107  -8.2709  -8.2704
    -2.0077  -2.0065  -0.5596  -0.5593   0.8673   0.8696   1.9952   2.0000
     2.4632   2.4635   2.6788   2.6792   3.6344   3.6401

          k =-0.2000 0.1155-0.1073 ( 15046 PWs)   bands (ev):

   -10.3656 -10.3642 -10.3059 -10.3045 -10.2656 -10.2644 -10.2423 -10.2409
   -10.1967 -10.1953 -10.1825 -10.1811 -10.1793 -10.1779 -10.0818 -10.0804
   -10.0499 -10.0486  -9.9750  -9.9737  -8.7939  -8.7934  -8.6253  -8.6248
    -1.8678  -1.8663   0.2996   0.2998   1.5173   1.5182   2.0522   2.0546
     2.8414   2.8418   3.0238   3.0242   3.9723   3.9749

          k =-0.1000 0.0577-0.1073 ( 15082 PWs)   bands (ev):

   -10.3586 -10.3571 -10.2672 -10.2658 -10.2446 -10.2432 -10.2159 -10.2146
   -10.1927 -10.1913 -10.1891 -10.1890 -10.1877 -10.1876 -10.0681 -10.0668
   -10.0483 -10.0469 -10.0036 -10.0023  -9.0762  -9.0758  -8.8869  -8.8865
    -1.9284  -1.9267   0.6407   0.6413   2.6198   2.6199   2.8112   2.8119
     3.2056   3.2060   3.3491   3.3495   4.0249   4.0259

          k =-0.0000 0.0000-0.1073 ( 15042 PWs)   bands (ev):

   -10.3581 -10.3566 -10.2459 -10.2459 -10.2445 -10.2445 -10.1926 -10.1926
   -10.1913 -10.1913 -10.1912 -10.1912 -10.1898 -10.1898 -10.0477 -10.0477
   -10.0463 -10.0463 -10.0315 -10.0303  -9.1814  -9.1810  -8.9834  -8.9829
    -1.9714  -1.9697   0.6715   0.6722   3.3647   3.3647   3.3651   3.3651
     3.4883   3.4883   3.4887   3.4887   3.8955   3.8962

          k = 0.0000 0.0000 0.0000 ( 15101 PWs)   bands (ev):

   -10.3581 -10.3566 -10.2459 -10.2459 -10.2445 -10.2445 -10.1926 -10.1926
   -10.1913 -10.1913 -10.1912 -10.1912 -10.1898 -10.1898 -10.0477 -10.0477
   -10.0463 -10.0463 -10.0317 -10.0301  -9.1972  -9.1617  -9.0042  -8.9656
    -2.0227  -1.9142   0.4938   0.8675   3.3567   3.3567   3.3745   3.3745
     3.4783   3.4783   3.4974   3.4974   3.5442   4.3189

     Writing output data file aiida.save/

     init_run     :      8.03s CPU      9.07s WALL (       1 calls)
     electrons    :   2088.42s CPU   2096.88s WALL (       1 calls)

     Called by init_run:
     wfcinit      :      0.00s CPU      0.00s WALL (       1 calls)
     wfcinit:atom :      0.34s CPU      0.35s WALL (      37 calls)
     wfcinit:wfcr :     54.37s CPU     54.45s WALL (      37 calls)
     potinit      :      1.90s CPU      1.95s WALL (       1 calls)
     hinit0       :      2.46s CPU      2.48s WALL (       1 calls)

     Called by electrons:
     c_bands      :   2088.42s CPU   2096.87s WALL (       1 calls)
     v_of_rho     :      0.61s CPU      0.65s WALL (       1 calls)
     v_h          :      0.04s CPU      0.05s WALL (       1 calls)
     v_xc         :      0.58s CPU      0.60s WALL (       1 calls)
     newd         :      3.43s CPU      4.38s WALL (       1 calls)
     PAW_pot      :      1.20s CPU      1.20s WALL (       1 calls)

     Called by c_bands:
     init_us_2    :      0.76s CPU      0.82s WALL (      37 calls)
     cegterg      :   2027.18s CPU   2032.28s WALL (      90 calls)

     Called by sum_band:

     Called by *egterg:
     h_psi        :   1049.42s CPU   1051.80s WALL (    1630 calls)
     s_psi        :    235.29s CPU    235.49s WALL (    1630 calls)
     g_psi        :      5.20s CPU      5.21s WALL (    1503 calls)
     cdiaghg      :     12.48s CPU     12.50s WALL (    1540 calls)
     cegterg:over :    328.56s CPU    328.74s WALL (    1503 calls)
     cegterg:upda :    220.45s CPU    221.29s WALL (    1503 calls)
     cegterg:last :    206.39s CPU    206.52s WALL (     466 calls)

     Called by h_psi:
     h_psi:pot    :   1046.98s CPU   1048.59s WALL (    1630 calls)
     h_psi:calbec :    240.74s CPU    241.00s WALL (    1630 calls)
     vloc_psi     :    571.17s CPU    572.38s WALL (    1630 calls)
     add_vuspsi   :    235.04s CPU    235.20s WALL (    1630 calls)

     General routines
     calbec       :    240.73s CPU    240.99s WALL (    1630 calls)
     fft          :      0.37s CPU      0.37s WALL (      13 calls)
     ffts         :      0.02s CPU      0.02s WALL (       1 calls)
     fftw         :    509.81s CPU    510.96s WALL (  106886 calls)
     interpolate  :      0.05s CPU      0.05s WALL (       1 calls)
     davcio       :      0.04s CPU      3.27s WALL (      74 calls)

     Parallel routines

     PAW routines
     PAW_pot      :      1.20s CPU      1.20s WALL (       1 calls)

     PWSCF        :  34m57.90s CPU  35m 8.40s WALL


   This run was terminated on:   9:20:13  29Apr2021            

=------------------------------------------------------------------------------=
   JOB DONE.
=------------------------------------------------------------------------------=
