
     Program PWSCF v.6.4.1 starts on 29Apr2021 at  0: 8:46 

     This program is part of the open-source Quantum ESPRESSO suite
     for quantum simulation of materials; please cite
         "P. Giannozzi et al., J. Phys.:Condens. Matter 21 395502 (2009);
         "P. Giannozzi et al., J. Phys.:Condens. Matter 29 465901 (2017);
          URL http://www.quantum-espresso.org", 
     in publications or presentations arising from this work. More details at
     http://www.quantum-espresso.org/quote

     Parallel version (MPI), running on     1 processors

     MPI processes distributed on     1 nodes
     Waiting for input...
     Reading input from standard input

     Current dimensions of program PWSCF are:
     Max number of different atomic species (ntypx) = 10
     Max number of k-points (npk) =  40000
     Max angular momentum in pseudopotentials (lmaxx) =  3

     Atomic positions and unit cell read from directory:
     ./out/aiida.save/

               file Ga.pbe-dn-kjpaw_psl.1.0.0.UPF: wavefunction(s)  4S renormalized

     Subspace diagonalization in iterative solution of the eigenvalue problem:
     a serial algorithm will be used

     Message from routine setup:
     DEPRECATED: symmetry with ibrav=0, use correct ibrav instead

     G-vector sticks info
     --------------------
     sticks:   dense  smooth     PW     G-vecs:    dense   smooth      PW
     Sum        2017    1015    313               339673   120041   20307



     bravais-lattice index     =            0
     lattice parameter (alat)  =       7.2170  a.u.
     unit-cell volume          =    1517.4191 (a.u.)^3
     number of atoms/cell      =            8
     number of atomic types    =            2
     number of electrons       =        76.00
     number of Kohn-Sham states=           46
     kinetic-energy cutoff     =      70.0000  Ry
     charge density cutoff     =     560.0000  Ry
     Exchange-correlation      = SLA  PW   PBE  PBE ( 1  4  3  4 0 0)

     celldm(1)=   7.216990  celldm(2)=   0.000000  celldm(3)=   0.000000
     celldm(4)=   0.000000  celldm(5)=   0.000000  celldm(6)=   0.000000

     crystal axes: (cart. coord. in units of alat)
               a(1) = (  -0.500000  -0.866025   0.000000 )  
               a(2) = (  -0.500000   0.866025   0.000000 )  
               a(3) = (   0.000000   0.000000  -4.661295 )  

     reciprocal axes: (cart. coord. in units 2 pi/alat)
               b(1) = ( -1.000000 -0.577350 -0.000000 )  
               b(2) = ( -1.000000  0.577350  0.000000 )  
               b(3) = ( -0.000000  0.000000 -0.214533 )  


     PseudoPot. # 1 for Ga read from file:
     ./pseudo/Ga.pbe-dn-kjpaw_psl.1.0.0.UPF
     MD5 check sum: a27b4342b1af7e5f338de752e9ed7044
     Pseudo is Projector augmented-wave + core cor, Zval = 13.0
     Generated using "atomic" code by A. Dal Corso v.5.1
     Shape of augmentation charge: PSQ
     Using radial grid of 1205 points,  6 beta functions with: 
                l(1) =   0
                l(2) =   0
                l(3) =   1
                l(4) =   1
                l(5) =   2
                l(6) =   2
     Q(r) pseudized with 0 coefficients 


     PseudoPot. # 2 for Se read from file:
     ./pseudo/Se_pbe_v1.uspp.F.UPF
     MD5 check sum: 1b3568f3a8ae88f9a2a0ad0698632c85
     Pseudo is Ultrasoft + core correction, Zval =  6.0
     Generated by new atomic code, or converted to UPF format
     Using radial grid of  877 points,  6 beta functions with: 
                l(1) =   0
                l(2) =   0
                l(3) =   1
                l(4) =   1
                l(5) =   2
                l(6) =   2
     Q(r) pseudized with  8 coefficients,  rinner =    1.300   1.300   1.300
                                                       1.300   1.300

     atomic species   valence    mass     pseudopotential
        Ga            13.00    69.72300     Ga( 1.00)
        Se             6.00    78.96000     Se( 1.00)

     12 Sym. Ops. (no inversion) found


                                    s                        frac. trans.

      isym =  1     identity                                     

 cryst.   s( 1) = (     1          0          0      )
                  (     0          1          0      )
                  (     0          0          1      )

 cart.    s( 1) = (  1.0000000  0.0000000  0.0000000 )
                  (  0.0000000  1.0000000  0.0000000 )
                  (  0.0000000  0.0000000  1.0000000 )


      isym =  2     180 deg rotation - cart. axis [0,1,0]        

 cryst.   s( 2) = (     0         -1          0      )
                  (    -1          0          0      )
                  (     0          0         -1      )

 cart.    s( 2) = ( -1.0000000  0.0000000  0.0000000 )
                  (  0.0000000  1.0000000  0.0000000 )
                  (  0.0000000  0.0000000 -1.0000000 )


      isym =  3     120 deg rotation - cryst. axis [0,0,1]       

 cryst.   s( 3) = (    -1         -1          0      )
                  (     1          0          0      )
                  (     0          0          1      )

 cart.    s( 3) = ( -0.5000000 -0.8660254  0.0000000 )
                  (  0.8660254 -0.5000000  0.0000000 )
                  (  0.0000000  0.0000000  1.0000000 )


      isym =  4     120 deg rotation - cryst. axis [0,0,-1]      

 cryst.   s( 4) = (     0          1          0      )
                  (    -1         -1          0      )
                  (     0          0          1      )

 cart.    s( 4) = ( -0.5000000  0.8660254  0.0000000 )
                  ( -0.8660254 -0.5000000  0.0000000 )
                  (  0.0000000  0.0000000  1.0000000 )


      isym =  5     180 deg rotation - cryst. axis [1,-1,0]      

 cryst.   s( 5) = (    -1          0          0      )
                  (     1          1          0      )
                  (     0          0         -1      )

 cart.    s( 5) = (  0.5000000 -0.8660254  0.0000000 )
                  ( -0.8660254 -0.5000000  0.0000000 )
                  (  0.0000000  0.0000000 -1.0000000 )


      isym =  6     180 deg rotation - cryst. axis [2,1,0]       

 cryst.   s( 6) = (     1          1          0      )
                  (     0         -1          0      )
                  (     0          0         -1      )

 cart.    s( 6) = (  0.5000000  0.8660254  0.0000000 )
                  (  0.8660254 -0.5000000  0.0000000 )
                  (  0.0000000  0.0000000 -1.0000000 )


      isym =  7     inv. 180 deg rotation - cart. axis [0,0,1]   

 cryst.   s( 7) = (     1          0          0      )
                  (     0          1          0      )
                  (     0          0         -1      )

 cart.    s( 7) = (  1.0000000  0.0000000  0.0000000 )
                  (  0.0000000  1.0000000  0.0000000 )
                  (  0.0000000  0.0000000 -1.0000000 )


      isym =  8     inv. 180 deg rotation - cart. axis [1,0,0]   

 cryst.   s( 8) = (     0         -1          0      )
                  (    -1          0          0      )
                  (     0          0          1      )

 cart.    s( 8) = ( -1.0000000  0.0000000  0.0000000 )
                  (  0.0000000  1.0000000  0.0000000 )
                  (  0.0000000  0.0000000  1.0000000 )


      isym =  9     inv.  60 deg rotation - cryst. axis [0,0,1]  

 cryst.   s( 9) = (     0          1          0      )
                  (    -1         -1          0      )
                  (     0          0         -1      )

 cart.    s( 9) = ( -0.5000000  0.8660254  0.0000000 )
                  ( -0.8660254 -0.5000000  0.0000000 )
                  (  0.0000000  0.0000000 -1.0000000 )


      isym = 10     inv.  60 deg rotation - cryst. axis [0,0,-1] 

 cryst.   s(10) = (    -1         -1          0      )
                  (     1          0          0      )
                  (     0          0         -1      )

 cart.    s(10) = ( -0.5000000 -0.8660254  0.0000000 )
                  (  0.8660254 -0.5000000  0.0000000 )
                  (  0.0000000  0.0000000 -1.0000000 )


      isym = 11     inv. 180 deg rotation - cryst. axis [0,1,0]  

 cryst.   s(11) = (     1          1          0      )
                  (     0         -1          0      )
                  (     0          0          1      )

 cart.    s(11) = (  0.5000000  0.8660254  0.0000000 )
                  (  0.8660254 -0.5000000  0.0000000 )
                  (  0.0000000  0.0000000  1.0000000 )


      isym = 12     inv. 180 deg rotation - cryst. axis [1,1,0]  

 cryst.   s(12) = (    -1          0          0      )
                  (     1          1          0      )
                  (     0          0          1      )

 cart.    s(12) = (  0.5000000 -0.8660254  0.0000000 )
                  ( -0.8660254 -0.5000000  0.0000000 )
                  (  0.0000000  0.0000000  1.0000000 )


   Cartesian axes

     site n.     atom                  positions (alat units)
         1           Ga  tau(   1) = (   0.0000000   0.0000000  -4.3377730  )
         2           Ga  tau(   2) = (   0.0000000   0.0000000  -0.3235218  )
         3           Ga  tau(   3) = (  -0.5000000   0.2886751  -2.6541413  )
         4           Ga  tau(   4) = (  -0.5000000   0.2886751  -2.0071536  )
         5           Se  tau(   5) = (  -0.5000000   0.2886751  -0.6306685  )
         6           Se  tau(   6) = (  -0.5000000   0.2886751  -4.0306263  )
         7           Se  tau(   7) = (  -0.5000000  -0.2886751  -1.6999416  )
         8           Se  tau(   8) = (  -0.5000000  -0.2886751  -2.9613532  )

   Crystallographic axes

     site n.     atom                  positions (cryst. coord.)
         1           Ga  tau(   1) = (  0.0000000  0.0000000  0.9305940  )
         2           Ga  tau(   2) = (  0.0000000  0.0000000  0.0694060  )
         3           Ga  tau(   3) = (  0.3333333  0.6666667  0.5694000  )
         4           Ga  tau(   4) = (  0.3333333  0.6666667  0.4306000  )
         5           Se  tau(   5) = (  0.3333333  0.6666667  0.1352990  )
         6           Se  tau(   6) = (  0.3333333  0.6666667  0.8647010  )
         7           Se  tau(   7) = (  0.6666667  0.3333333  0.3646930  )
         8           Se  tau(   8) = (  0.6666667  0.3333333  0.6353070  )

     number of k points=   125  Marzari-Vanderbilt smearing, width (Ry)=  0.0220
                       cart. coord. in units 2pi/alat
        k(    1) = (  -0.1111111   0.0000000  -0.0119185), wk =   0.0109739
        k(    2) = (  -0.1111111   0.0000000  -0.0357554), wk =   0.0109739
        k(    3) = (  -0.1111111   0.0000000  -0.0595924), wk =   0.0109739
        k(    4) = (  -0.1111111   0.0000000  -0.0834294), wk =   0.0109739
        k(    5) = (  -0.1111111   0.0000000   0.1072663), wk =   0.0054870
        k(    6) = (  -0.2222222   0.0641500  -0.0119185), wk =   0.0219479
        k(    7) = (  -0.2222222   0.0641500  -0.0357554), wk =   0.0219479
        k(    8) = (  -0.2222222   0.0641500  -0.0595924), wk =   0.0219479
        k(    9) = (  -0.2222222   0.0641500  -0.0834294), wk =   0.0219479
        k(   10) = (  -0.2222222   0.0641500   0.1072663), wk =   0.0109739
        k(   11) = (  -0.3333333   0.1283001  -0.0119185), wk =   0.0219479
        k(   12) = (  -0.3333333   0.1283001  -0.0357554), wk =   0.0219479
        k(   13) = (  -0.3333333   0.1283001  -0.0595924), wk =   0.0219479
        k(   14) = (  -0.3333333   0.1283001  -0.0834294), wk =   0.0219479
        k(   15) = (  -0.3333333   0.1283001   0.1072663), wk =   0.0109739
        k(   16) = (  -0.4444444   0.1924501  -0.0119185), wk =   0.0219479
        k(   17) = (  -0.4444444   0.1924501  -0.0357554), wk =   0.0219479
        k(   18) = (  -0.4444444   0.1924501  -0.0595924), wk =   0.0219479
        k(   19) = (  -0.4444444   0.1924501  -0.0834294), wk =   0.0219479
        k(   20) = (  -0.4444444   0.1924501   0.1072663), wk =   0.0109739
        k(   21) = (   0.4444444  -0.3207501  -0.0119185), wk =   0.0219479
        k(   22) = (   0.4444444  -0.3207501  -0.0357554), wk =   0.0219479
        k(   23) = (   0.4444444  -0.3207501  -0.0595924), wk =   0.0219479
        k(   24) = (   0.4444444  -0.3207501  -0.0834294), wk =   0.0219479
        k(   25) = (   0.4444444  -0.3207501   0.1072663), wk =   0.0109739
        k(   26) = (   0.3333333  -0.2566001  -0.0119185), wk =   0.0219479
        k(   27) = (   0.3333333  -0.2566001  -0.0357554), wk =   0.0219479
        k(   28) = (   0.3333333  -0.2566001  -0.0595924), wk =   0.0219479
        k(   29) = (   0.3333333  -0.2566001  -0.0834294), wk =   0.0219479
        k(   30) = (   0.3333333  -0.2566001   0.1072663), wk =   0.0109739
        k(   31) = (   0.2222222  -0.1924501  -0.0119185), wk =   0.0219479
        k(   32) = (   0.2222222  -0.1924501  -0.0357554), wk =   0.0219479
        k(   33) = (   0.2222222  -0.1924501  -0.0595924), wk =   0.0219479
        k(   34) = (   0.2222222  -0.1924501  -0.0834294), wk =   0.0219479
        k(   35) = (   0.2222222  -0.1924501   0.1072663), wk =   0.0109739
        k(   36) = (   0.1111111  -0.1283001  -0.0119185), wk =   0.0219479
        k(   37) = (   0.1111111  -0.1283001  -0.0357554), wk =   0.0219479
        k(   38) = (   0.1111111  -0.1283001  -0.0595924), wk =   0.0219479
        k(   39) = (   0.1111111  -0.1283001  -0.0834294), wk =   0.0219479
        k(   40) = (   0.1111111  -0.1283001   0.1072663), wk =   0.0109739
        k(   41) = (   0.0000000  -0.0641500  -0.0119185), wk =   0.0109739
        k(   42) = (   0.0000000  -0.0641500  -0.0357554), wk =   0.0109739
        k(   43) = (   0.0000000  -0.0641500  -0.0595924), wk =   0.0109739
        k(   44) = (   0.0000000  -0.0641500  -0.0834294), wk =   0.0109739
        k(   45) = (   0.0000000  -0.0641500   0.1072663), wk =   0.0054870
        k(   46) = (  -0.3333333   0.0000000  -0.0119185), wk =   0.0109739
        k(   47) = (  -0.3333333   0.0000000  -0.0357554), wk =   0.0109739
        k(   48) = (  -0.3333333   0.0000000  -0.0595924), wk =   0.0109739
        k(   49) = (  -0.3333333   0.0000000  -0.0834294), wk =   0.0109739
        k(   50) = (  -0.3333333   0.0000000   0.1072663), wk =   0.0054870
        k(   51) = (  -0.4444444   0.0641500  -0.0119185), wk =   0.0219479
        k(   52) = (  -0.4444444   0.0641500  -0.0357554), wk =   0.0219479
        k(   53) = (  -0.4444444   0.0641500  -0.0595924), wk =   0.0219479
        k(   54) = (  -0.4444444   0.0641500  -0.0834294), wk =   0.0219479
        k(   55) = (  -0.4444444   0.0641500   0.1072663), wk =   0.0109739
        k(   56) = (  -0.5555556   0.1283001  -0.0119185), wk =   0.0219479
        k(   57) = (  -0.5555556   0.1283001  -0.0357554), wk =   0.0219479
        k(   58) = (  -0.5555556   0.1283001  -0.0595924), wk =   0.0219479
        k(   59) = (  -0.5555556   0.1283001  -0.0834294), wk =   0.0219479
        k(   60) = (  -0.5555556   0.1283001   0.1072663), wk =   0.0109739
        k(   61) = (   0.3333333  -0.3849002  -0.0119185), wk =   0.0219479
        k(   62) = (   0.3333333  -0.3849002  -0.0357554), wk =   0.0219479
        k(   63) = (   0.3333333  -0.3849002  -0.0595924), wk =   0.0219479
        k(   64) = (   0.3333333  -0.3849002  -0.0834294), wk =   0.0219479
        k(   65) = (   0.3333333  -0.3849002   0.1072663), wk =   0.0109739
        k(   66) = (   0.2222222  -0.3207501  -0.0119185), wk =   0.0219479
        k(   67) = (   0.2222222  -0.3207501  -0.0357554), wk =   0.0219479
        k(   68) = (   0.2222222  -0.3207501  -0.0595924), wk =   0.0219479
        k(   69) = (   0.2222222  -0.3207501  -0.0834294), wk =   0.0219479
        k(   70) = (   0.2222222  -0.3207501   0.1072663), wk =   0.0109739
        k(   71) = (   0.1111111  -0.2566001  -0.0119185), wk =   0.0219479
        k(   72) = (   0.1111111  -0.2566001  -0.0357554), wk =   0.0219479
        k(   73) = (   0.1111111  -0.2566001  -0.0595924), wk =   0.0219479
        k(   74) = (   0.1111111  -0.2566001  -0.0834294), wk =   0.0219479
        k(   75) = (   0.1111111  -0.2566001   0.1072663), wk =   0.0109739
        k(   76) = (  -0.0000000  -0.1924501  -0.0119185), wk =   0.0109739
        k(   77) = (  -0.0000000  -0.1924501  -0.0357554), wk =   0.0109739
        k(   78) = (  -0.0000000  -0.1924501  -0.0595924), wk =   0.0109739
        k(   79) = (  -0.0000000  -0.1924501  -0.0834294), wk =   0.0109739
        k(   80) = (  -0.0000000  -0.1924501   0.1072663), wk =   0.0054870
        k(   81) = (  -0.5555556   0.0000000  -0.0119185), wk =   0.0109739
        k(   82) = (  -0.5555556   0.0000000  -0.0357554), wk =   0.0109739
        k(   83) = (  -0.5555556   0.0000000  -0.0595924), wk =   0.0109739
        k(   84) = (  -0.5555556   0.0000000  -0.0834294), wk =   0.0109739
        k(   85) = (  -0.5555556   0.0000000   0.1072663), wk =   0.0054870
        k(   86) = (  -0.6666667   0.0641500  -0.0119185), wk =   0.0219479
        k(   87) = (  -0.6666667   0.0641500  -0.0357554), wk =   0.0219479
        k(   88) = (  -0.6666667   0.0641500  -0.0595924), wk =   0.0219479
        k(   89) = (  -0.6666667   0.0641500  -0.0834294), wk =   0.0219479
        k(   90) = (  -0.6666667   0.0641500   0.1072663), wk =   0.0109739
        k(   91) = (   0.2222222  -0.4490502  -0.0119185), wk =   0.0219479
        k(   92) = (   0.2222222  -0.4490502  -0.0357554), wk =   0.0219479
        k(   93) = (   0.2222222  -0.4490502  -0.0595924), wk =   0.0219479
        k(   94) = (   0.2222222  -0.4490502  -0.0834294), wk =   0.0219479
        k(   95) = (   0.2222222  -0.4490502   0.1072663), wk =   0.0109739
        k(   96) = (   0.1111111  -0.3849002  -0.0119185), wk =   0.0219479
        k(   97) = (   0.1111111  -0.3849002  -0.0357554), wk =   0.0219479
        k(   98) = (   0.1111111  -0.3849002  -0.0595924), wk =   0.0219479
        k(   99) = (   0.1111111  -0.3849002  -0.0834294), wk =   0.0219479
        k(  100) = (   0.1111111  -0.3849002   0.1072663), wk =   0.0109739
        k(  101) = (   0.0000000  -0.3207501  -0.0119185), wk =   0.0109739
        k(  102) = (   0.0000000  -0.3207501  -0.0357554), wk =   0.0109739
        k(  103) = (   0.0000000  -0.3207501  -0.0595924), wk =   0.0109739
        k(  104) = (   0.0000000  -0.3207501  -0.0834294), wk =   0.0109739
        k(  105) = (   0.0000000  -0.3207501   0.1072663), wk =   0.0054870
        k(  106) = (  -0.7777778   0.0000000  -0.0119185), wk =   0.0109739
        k(  107) = (  -0.7777778   0.0000000  -0.0357554), wk =   0.0109739
        k(  108) = (  -0.7777778   0.0000000  -0.0595924), wk =   0.0109739
        k(  109) = (  -0.7777778   0.0000000  -0.0834294), wk =   0.0109739
        k(  110) = (  -0.7777778   0.0000000   0.1072663), wk =   0.0054870
        k(  111) = (   0.1111111  -0.5132002  -0.0119185), wk =   0.0219479
        k(  112) = (   0.1111111  -0.5132002  -0.0357554), wk =   0.0219479
        k(  113) = (   0.1111111  -0.5132002  -0.0595924), wk =   0.0219479
        k(  114) = (   0.1111111  -0.5132002  -0.0834294), wk =   0.0219479
        k(  115) = (   0.1111111  -0.5132002   0.1072663), wk =   0.0109739
        k(  116) = (   0.0000000  -0.4490502  -0.0119185), wk =   0.0109739
        k(  117) = (   0.0000000  -0.4490502  -0.0357554), wk =   0.0109739
        k(  118) = (   0.0000000  -0.4490502  -0.0595924), wk =   0.0109739
        k(  119) = (   0.0000000  -0.4490502  -0.0834294), wk =   0.0109739
        k(  120) = (   0.0000000  -0.4490502   0.1072663), wk =   0.0054870
        k(  121) = (   1.0000000   0.0000000  -0.0119185), wk =   0.0054870
        k(  122) = (   1.0000000   0.0000000  -0.0357554), wk =   0.0054870
        k(  123) = (   1.0000000   0.0000000  -0.0595924), wk =   0.0054870
        k(  124) = (   1.0000000   0.0000000  -0.0834294), wk =   0.0054870
        k(  125) = (   1.0000000   0.0000000   0.1072663), wk =   0.0027435

                       cryst. coord.
        k(    1) = (   0.0555556   0.0555556   0.0555556), wk =   0.0109739
        k(    2) = (   0.0555556   0.0555556   0.1666667), wk =   0.0109739
        k(    3) = (   0.0555556   0.0555556   0.2777778), wk =   0.0109739
        k(    4) = (   0.0555556   0.0555556   0.3888889), wk =   0.0109739
        k(    5) = (   0.0555556   0.0555556  -0.5000000), wk =   0.0054870
        k(    6) = (   0.0555556   0.1666667   0.0555556), wk =   0.0219479
        k(    7) = (   0.0555556   0.1666667   0.1666667), wk =   0.0219479
        k(    8) = (   0.0555556   0.1666667   0.2777778), wk =   0.0219479
        k(    9) = (   0.0555556   0.1666667   0.3888889), wk =   0.0219479
        k(   10) = (   0.0555556   0.1666667  -0.5000000), wk =   0.0109739
        k(   11) = (   0.0555556   0.2777778   0.0555556), wk =   0.0219479
        k(   12) = (   0.0555556   0.2777778   0.1666667), wk =   0.0219479
        k(   13) = (   0.0555556   0.2777778   0.2777778), wk =   0.0219479
        k(   14) = (   0.0555556   0.2777778   0.3888889), wk =   0.0219479
        k(   15) = (   0.0555556   0.2777778  -0.5000000), wk =   0.0109739
        k(   16) = (   0.0555556   0.3888889   0.0555556), wk =   0.0219479
        k(   17) = (   0.0555556   0.3888889   0.1666667), wk =   0.0219479
        k(   18) = (   0.0555556   0.3888889   0.2777778), wk =   0.0219479
        k(   19) = (   0.0555556   0.3888889   0.3888889), wk =   0.0219479
        k(   20) = (   0.0555556   0.3888889  -0.5000000), wk =   0.0109739
        k(   21) = (   0.0555556  -0.5000000   0.0555556), wk =   0.0219479
        k(   22) = (   0.0555556  -0.5000000   0.1666667), wk =   0.0219479
        k(   23) = (   0.0555556  -0.5000000   0.2777778), wk =   0.0219479
        k(   24) = (   0.0555556  -0.5000000   0.3888889), wk =   0.0219479
        k(   25) = (   0.0555556  -0.5000000  -0.5000000), wk =   0.0109739
        k(   26) = (   0.0555556  -0.3888889   0.0555556), wk =   0.0219479
        k(   27) = (   0.0555556  -0.3888889   0.1666667), wk =   0.0219479
        k(   28) = (   0.0555556  -0.3888889   0.2777778), wk =   0.0219479
        k(   29) = (   0.0555556  -0.3888889   0.3888889), wk =   0.0219479
        k(   30) = (   0.0555556  -0.3888889  -0.5000000), wk =   0.0109739
        k(   31) = (   0.0555556  -0.2777778   0.0555556), wk =   0.0219479
        k(   32) = (   0.0555556  -0.2777778   0.1666667), wk =   0.0219479
        k(   33) = (   0.0555556  -0.2777778   0.2777778), wk =   0.0219479
        k(   34) = (   0.0555556  -0.2777778   0.3888889), wk =   0.0219479
        k(   35) = (   0.0555556  -0.2777778  -0.5000000), wk =   0.0109739
        k(   36) = (   0.0555556  -0.1666667   0.0555556), wk =   0.0219479
        k(   37) = (   0.0555556  -0.1666667   0.1666667), wk =   0.0219479
        k(   38) = (   0.0555556  -0.1666667   0.2777778), wk =   0.0219479
        k(   39) = (   0.0555556  -0.1666667   0.3888889), wk =   0.0219479
        k(   40) = (   0.0555556  -0.1666667  -0.5000000), wk =   0.0109739
        k(   41) = (   0.0555556  -0.0555556   0.0555556), wk =   0.0109739
        k(   42) = (   0.0555556  -0.0555556   0.1666667), wk =   0.0109739
        k(   43) = (   0.0555556  -0.0555556   0.2777778), wk =   0.0109739
        k(   44) = (   0.0555556  -0.0555556   0.3888889), wk =   0.0109739
        k(   45) = (   0.0555556  -0.0555556  -0.5000000), wk =   0.0054870
        k(   46) = (   0.1666667   0.1666667   0.0555556), wk =   0.0109739
        k(   47) = (   0.1666667   0.1666667   0.1666667), wk =   0.0109739
        k(   48) = (   0.1666667   0.1666667   0.2777778), wk =   0.0109739
        k(   49) = (   0.1666667   0.1666667   0.3888889), wk =   0.0109739
        k(   50) = (   0.1666667   0.1666667  -0.5000000), wk =   0.0054870
        k(   51) = (   0.1666667   0.2777778   0.0555556), wk =   0.0219479
        k(   52) = (   0.1666667   0.2777778   0.1666667), wk =   0.0219479
        k(   53) = (   0.1666667   0.2777778   0.2777778), wk =   0.0219479
        k(   54) = (   0.1666667   0.2777778   0.3888889), wk =   0.0219479
        k(   55) = (   0.1666667   0.2777778  -0.5000000), wk =   0.0109739
        k(   56) = (   0.1666667   0.3888889   0.0555556), wk =   0.0219479
        k(   57) = (   0.1666667   0.3888889   0.1666667), wk =   0.0219479
        k(   58) = (   0.1666667   0.3888889   0.2777778), wk =   0.0219479
        k(   59) = (   0.1666667   0.3888889   0.3888889), wk =   0.0219479
        k(   60) = (   0.1666667   0.3888889  -0.5000000), wk =   0.0109739
        k(   61) = (   0.1666667  -0.5000000   0.0555556), wk =   0.0219479
        k(   62) = (   0.1666667  -0.5000000   0.1666667), wk =   0.0219479
        k(   63) = (   0.1666667  -0.5000000   0.2777778), wk =   0.0219479
        k(   64) = (   0.1666667  -0.5000000   0.3888889), wk =   0.0219479
        k(   65) = (   0.1666667  -0.5000000  -0.5000000), wk =   0.0109739
        k(   66) = (   0.1666667  -0.3888889   0.0555556), wk =   0.0219479
        k(   67) = (   0.1666667  -0.3888889   0.1666667), wk =   0.0219479
        k(   68) = (   0.1666667  -0.3888889   0.2777778), wk =   0.0219479
        k(   69) = (   0.1666667  -0.3888889   0.3888889), wk =   0.0219479
        k(   70) = (   0.1666667  -0.3888889  -0.5000000), wk =   0.0109739
        k(   71) = (   0.1666667  -0.2777778   0.0555556), wk =   0.0219479
        k(   72) = (   0.1666667  -0.2777778   0.1666667), wk =   0.0219479
        k(   73) = (   0.1666667  -0.2777778   0.2777778), wk =   0.0219479
        k(   74) = (   0.1666667  -0.2777778   0.3888889), wk =   0.0219479
        k(   75) = (   0.1666667  -0.2777778  -0.5000000), wk =   0.0109739
        k(   76) = (   0.1666667  -0.1666667   0.0555556), wk =   0.0109739
        k(   77) = (   0.1666667  -0.1666667   0.1666667), wk =   0.0109739
        k(   78) = (   0.1666667  -0.1666667   0.2777778), wk =   0.0109739
        k(   79) = (   0.1666667  -0.1666667   0.3888889), wk =   0.0109739
        k(   80) = (   0.1666667  -0.1666667  -0.5000000), wk =   0.0054870
        k(   81) = (   0.2777778   0.2777778   0.0555556), wk =   0.0109739
        k(   82) = (   0.2777778   0.2777778   0.1666667), wk =   0.0109739
        k(   83) = (   0.2777778   0.2777778   0.2777778), wk =   0.0109739
        k(   84) = (   0.2777778   0.2777778   0.3888889), wk =   0.0109739
        k(   85) = (   0.2777778   0.2777778  -0.5000000), wk =   0.0054870
        k(   86) = (   0.2777778   0.3888889   0.0555556), wk =   0.0219479
        k(   87) = (   0.2777778   0.3888889   0.1666667), wk =   0.0219479
        k(   88) = (   0.2777778   0.3888889   0.2777778), wk =   0.0219479
        k(   89) = (   0.2777778   0.3888889   0.3888889), wk =   0.0219479
        k(   90) = (   0.2777778   0.3888889  -0.5000000), wk =   0.0109739
        k(   91) = (   0.2777778  -0.5000000   0.0555556), wk =   0.0219479
        k(   92) = (   0.2777778  -0.5000000   0.1666667), wk =   0.0219479
        k(   93) = (   0.2777778  -0.5000000   0.2777778), wk =   0.0219479
        k(   94) = (   0.2777778  -0.5000000   0.3888889), wk =   0.0219479
        k(   95) = (   0.2777778  -0.5000000  -0.5000000), wk =   0.0109739
        k(   96) = (   0.2777778  -0.3888889   0.0555556), wk =   0.0219479
        k(   97) = (   0.2777778  -0.3888889   0.1666667), wk =   0.0219479
        k(   98) = (   0.2777778  -0.3888889   0.2777778), wk =   0.0219479
        k(   99) = (   0.2777778  -0.3888889   0.3888889), wk =   0.0219479
        k(  100) = (   0.2777778  -0.3888889  -0.5000000), wk =   0.0109739
        k(  101) = (   0.2777778  -0.2777778   0.0555556), wk =   0.0109739
        k(  102) = (   0.2777778  -0.2777778   0.1666667), wk =   0.0109739
        k(  103) = (   0.2777778  -0.2777778   0.2777778), wk =   0.0109739
        k(  104) = (   0.2777778  -0.2777778   0.3888889), wk =   0.0109739
        k(  105) = (   0.2777778  -0.2777778  -0.5000000), wk =   0.0054870
        k(  106) = (   0.3888889   0.3888889   0.0555556), wk =   0.0109739
        k(  107) = (   0.3888889   0.3888889   0.1666667), wk =   0.0109739
        k(  108) = (   0.3888889   0.3888889   0.2777778), wk =   0.0109739
        k(  109) = (   0.3888889   0.3888889   0.3888889), wk =   0.0109739
        k(  110) = (   0.3888889   0.3888889  -0.5000000), wk =   0.0054870
        k(  111) = (   0.3888889  -0.5000000   0.0555556), wk =   0.0219479
        k(  112) = (   0.3888889  -0.5000000   0.1666667), wk =   0.0219479
        k(  113) = (   0.3888889  -0.5000000   0.2777778), wk =   0.0219479
        k(  114) = (   0.3888889  -0.5000000   0.3888889), wk =   0.0219479
        k(  115) = (   0.3888889  -0.5000000  -0.5000000), wk =   0.0109739
        k(  116) = (   0.3888889  -0.3888889   0.0555556), wk =   0.0109739
        k(  117) = (   0.3888889  -0.3888889   0.1666667), wk =   0.0109739
        k(  118) = (   0.3888889  -0.3888889   0.2777778), wk =   0.0109739
        k(  119) = (   0.3888889  -0.3888889   0.3888889), wk =   0.0109739
        k(  120) = (   0.3888889  -0.3888889  -0.5000000), wk =   0.0054870
        k(  121) = (  -0.5000000  -0.5000000   0.0555556), wk =   0.0054870
        k(  122) = (  -0.5000000  -0.5000000   0.1666667), wk =   0.0054870
        k(  123) = (  -0.5000000  -0.5000000   0.2777778), wk =   0.0054870
        k(  124) = (  -0.5000000  -0.5000000   0.3888889), wk =   0.0054870
        k(  125) = (  -0.5000000  -0.5000000  -0.5000000), wk =   0.0027435

     Dense  grid:   339673 G-vectors     FFT dimensions: (  60,  60, 256)

     Smooth grid:   120041 G-vectors     FFT dimensions: (  40,  40, 180)

     Dynamical RAM for                 wfc:      10.53 MB

     Dynamical RAM for     wfc (w. buffer):      10.53 MB

     Dynamical RAM for           str. fact:      10.37 MB

     Dynamical RAM for           local pot:       0.00 MB

     Dynamical RAM for          nlocal pot:      32.97 MB

     Dynamical RAM for                qrad:       4.36 MB

     Dynamical RAM for          rho,v,vnew:      36.64 MB

     Dynamical RAM for           G-vectors:      20.35 MB

     Dynamical RAM for          h,s,v(r/c):       1.55 MB

     Dynamical RAM for          <psi|beta>:       0.10 MB

     Dynamical RAM for                 psi:      42.13 MB

     Dynamical RAM for                hpsi:      42.13 MB

     Dynamical RAM for                spsi:      42.13 MB

     Dynamical RAM for      wfcinit/wfcrot:      23.88 MB

     Dynamical RAM for           addusdens:     984.77 MB

     Estimated static dynamical RAM per process >     165.94 MB

     Estimated max dynamical RAM per process >       1.12 GB

     The potential is recalculated from file :
     ./out/aiida.save/charge-density

     Starting wfcs are   52 randomized atomic wfcs
     Checking if some PAW data can be deallocated... 

     Band Structure Calculation
     Davidson diagonalization with overlap

     Computing kpt #:     1
     total cpu time spent up to now is       84.8 secs

     Computing kpt #:     2
     total cpu time spent up to now is      169.9 secs

     Computing kpt #:     3
     total cpu time spent up to now is      245.8 secs

     Computing kpt #:     4
     total cpu time spent up to now is      332.3 secs

     Computing kpt #:     5
     total cpu time spent up to now is      408.7 secs

     Computing kpt #:     6
     c_bands:  1 eigenvalues not converged
     total cpu time spent up to now is      496.2 secs

     Computing kpt #:     7
     total cpu time spent up to now is      581.5 secs

     Computing kpt #:     8
     total cpu time spent up to now is      667.5 secs

     Computing kpt #:     9
     total cpu time spent up to now is      756.1 secs

     Computing kpt #:    10
     total cpu time spent up to now is      839.6 secs

     Computing kpt #:    11
     c_bands:  1 eigenvalues not converged
     total cpu time spent up to now is      934.1 secs

     Computing kpt #:    12
     total cpu time spent up to now is     1025.0 secs

     Computing kpt #:    13
     total cpu time spent up to now is     1118.8 secs

     Computing kpt #:    14
     total cpu time spent up to now is     1203.6 secs

     Computing kpt #:    15
     total cpu time spent up to now is     1287.5 secs

     Computing kpt #:    16
     total cpu time spent up to now is     1368.5 secs

     Computing kpt #:    17
     total cpu time spent up to now is     1456.5 secs

     Computing kpt #:    18
     total cpu time spent up to now is     1540.2 secs

     Computing kpt #:    19
     total cpu time spent up to now is     1622.5 secs

     Computing kpt #:    20
     total cpu time spent up to now is     1705.0 secs

     Computing kpt #:    21
     total cpu time spent up to now is     1785.7 secs

     Computing kpt #:    22
     total cpu time spent up to now is     1864.3 secs

     Computing kpt #:    23
     total cpu time spent up to now is     1940.9 secs

     Computing kpt #:    24
     total cpu time spent up to now is     2018.7 secs

     Computing kpt #:    25
     total cpu time spent up to now is     2096.5 secs

     Computing kpt #:    26
     total cpu time spent up to now is     2179.3 secs

     Computing kpt #:    27
     total cpu time spent up to now is     2262.5 secs

     Computing kpt #:    28
     total cpu time spent up to now is     2348.8 secs

     Computing kpt #:    29
     total cpu time spent up to now is     2430.1 secs

     Computing kpt #:    30
     total cpu time spent up to now is     2511.4 secs

     Computing kpt #:    31
     c_bands:  1 eigenvalues not converged
     total cpu time spent up to now is     2601.6 secs

     Computing kpt #:    32
     total cpu time spent up to now is     2690.7 secs

     Computing kpt #:    33
     total cpu time spent up to now is     2773.0 secs

     Computing kpt #:    34
     total cpu time spent up to now is     2857.7 secs

     Computing kpt #:    35
     total cpu time spent up to now is     2940.0 secs

     Computing kpt #:    36
     total cpu time spent up to now is     3014.0 secs

     Computing kpt #:    37
     total cpu time spent up to now is     3088.4 secs

     Computing kpt #:    38
     total cpu time spent up to now is     3163.3 secs

     Computing kpt #:    39
     total cpu time spent up to now is     3235.6 secs

     Computing kpt #:    40
     total cpu time spent up to now is     3311.0 secs

     Computing kpt #:    41
     total cpu time spent up to now is     3384.9 secs

     Computing kpt #:    42
     total cpu time spent up to now is     3459.2 secs

     Computing kpt #:    43
     total cpu time spent up to now is     3531.0 secs

     Computing kpt #:    44
     total cpu time spent up to now is     3607.2 secs

     Computing kpt #:    45
     total cpu time spent up to now is     3683.0 secs

     Computing kpt #:    46
     c_bands:  1 eigenvalues not converged
     total cpu time spent up to now is     3771.7 secs

     Computing kpt #:    47
     total cpu time spent up to now is     3856.2 secs

     Computing kpt #:    48
     total cpu time spent up to now is     3934.7 secs

     Computing kpt #:    49
     total cpu time spent up to now is     4013.8 secs

     Computing kpt #:    50
     total cpu time spent up to now is     4087.5 secs

     Computing kpt #:    51
     total cpu time spent up to now is     4177.4 secs

     Computing kpt #:    52
     total cpu time spent up to now is     4265.2 secs

     Computing kpt #:    53
     total cpu time spent up to now is     4347.4 secs

     Computing kpt #:    54
     total cpu time spent up to now is     4431.4 secs

     Computing kpt #:    55
     total cpu time spent up to now is     4516.3 secs

     Computing kpt #:    56
     c_bands:  1 eigenvalues not converged
     total cpu time spent up to now is     4606.7 secs

     Computing kpt #:    57
     total cpu time spent up to now is     4703.4 secs

     Computing kpt #:    58
     total cpu time spent up to now is     4799.9 secs

     Computing kpt #:    59
     total cpu time spent up to now is     4891.7 secs

     Computing kpt #:    60
     total cpu time spent up to now is     4977.0 secs

     Computing kpt #:    61
     c_bands:  1 eigenvalues not converged
     total cpu time spent up to now is     5065.6 secs

     Computing kpt #:    62
     total cpu time spent up to now is     5159.5 secs

     Computing kpt #:    63
     total cpu time spent up to now is     5242.1 secs

     Computing kpt #:    64
     total cpu time spent up to now is     5322.4 secs

     Computing kpt #:    65
     total cpu time spent up to now is     5403.5 secs

     Computing kpt #:    66
     total cpu time spent up to now is     5489.0 secs

     Computing kpt #:    67
     total cpu time spent up to now is     5570.1 secs

     Computing kpt #:    68
     total cpu time spent up to now is     5647.1 secs

     Computing kpt #:    69
     total cpu time spent up to now is     5725.2 secs

     Computing kpt #:    70
     total cpu time spent up to now is     5801.6 secs

     Computing kpt #:    71
     c_bands:  2 eigenvalues not converged
     total cpu time spent up to now is     5887.4 secs

     Computing kpt #:    72
     c_bands:  1 eigenvalues not converged
     total cpu time spent up to now is     5974.0 secs

     Computing kpt #:    73
     total cpu time spent up to now is     6058.9 secs

     Computing kpt #:    74
     total cpu time spent up to now is     6139.8 secs

     Computing kpt #:    75
     total cpu time spent up to now is     6220.0 secs

     Computing kpt #:    76
     total cpu time spent up to now is     6291.8 secs

     Computing kpt #:    77
     total cpu time spent up to now is     6364.0 secs

     Computing kpt #:    78
     total cpu time spent up to now is     6436.9 secs

     Computing kpt #:    79
     total cpu time spent up to now is     6509.3 secs

     Computing kpt #:    80
     total cpu time spent up to now is     6582.1 secs

     Computing kpt #:    81
     total cpu time spent up to now is     6658.3 secs

     Computing kpt #:    82
     total cpu time spent up to now is     6734.7 secs

     Computing kpt #:    83
     total cpu time spent up to now is     6812.3 secs

     Computing kpt #:    84
     total cpu time spent up to now is     6889.1 secs

     Computing kpt #:    85
     total cpu time spent up to now is     6965.2 secs

     Computing kpt #:    86
     total cpu time spent up to now is     7039.6 secs

     Computing kpt #:    87
     total cpu time spent up to now is     7112.0 secs

     Computing kpt #:    88
     total cpu time spent up to now is     7185.1 secs

     Computing kpt #:    89
     total cpu time spent up to now is     7258.2 secs

     Computing kpt #:    90
     total cpu time spent up to now is     7330.4 secs

     Computing kpt #:    91
     c_bands:  1 eigenvalues not converged
     total cpu time spent up to now is     7416.5 secs

     Computing kpt #:    92
     c_bands:  1 eigenvalues not converged
     total cpu time spent up to now is     7501.4 secs

     Computing kpt #:    93
     c_bands:  1 eigenvalues not converged
     total cpu time spent up to now is     7587.9 secs

     Computing kpt #:    94
     c_bands:  1 eigenvalues not converged
     total cpu time spent up to now is     7673.9 secs

     Computing kpt #:    95
     c_bands:  1 eigenvalues not converged
     total cpu time spent up to now is     7759.6 secs

     Computing kpt #:    96
     total cpu time spent up to now is     7842.6 secs

     Computing kpt #:    97
     total cpu time spent up to now is     7924.3 secs

     Computing kpt #:    98
     total cpu time spent up to now is     8005.5 secs

     Computing kpt #:    99
     total cpu time spent up to now is     8084.9 secs

     Computing kpt #:   100
     total cpu time spent up to now is     8164.2 secs

     Computing kpt #:   101
     total cpu time spent up to now is     8250.2 secs

     Computing kpt #:   102
     total cpu time spent up to now is     8336.5 secs

     Computing kpt #:   103
     total cpu time spent up to now is     8422.9 secs

     Computing kpt #:   104
     total cpu time spent up to now is     8505.8 secs

     Computing kpt #:   105
     c_bands:  1 eigenvalues not converged
     total cpu time spent up to now is     8591.1 secs

     Computing kpt #:   106
     total cpu time spent up to now is     8672.0 secs

     Computing kpt #:   107
     total cpu time spent up to now is     8752.4 secs

     Computing kpt #:   108
     total cpu time spent up to now is     8833.8 secs

     Computing kpt #:   109
     total cpu time spent up to now is     8916.1 secs

     Computing kpt #:   110
     total cpu time spent up to now is     8996.7 secs

     Computing kpt #:   111
     total cpu time spent up to now is     9081.9 secs

     Computing kpt #:   112
     total cpu time spent up to now is     9164.8 secs

     Computing kpt #:   113
     total cpu time spent up to now is     9245.8 secs

     Computing kpt #:   114
     total cpu time spent up to now is     9327.9 secs

     Computing kpt #:   115
     total cpu time spent up to now is     9410.3 secs

     Computing kpt #:   116
     total cpu time spent up to now is     9487.5 secs

     Computing kpt #:   117
     total cpu time spent up to now is     9564.9 secs

     Computing kpt #:   118
     total cpu time spent up to now is     9641.6 secs

     Computing kpt #:   119
     total cpu time spent up to now is     9718.0 secs

     Computing kpt #:   120
     total cpu time spent up to now is     9794.7 secs

     Computing kpt #:   121
     total cpu time spent up to now is     9871.4 secs

     Computing kpt #:   122
     total cpu time spent up to now is     9948.0 secs

     Computing kpt #:   123
     total cpu time spent up to now is    10025.6 secs

     Computing kpt #:   124
     total cpu time spent up to now is    10103.2 secs

     Computing kpt #:   125
     total cpu time spent up to now is    10180.6 secs

     ethr =  2.11E-12,  avg # of iterations = 80.3

     total cpu time spent up to now is    10180.7 secs

     End of band structure calculation

          k =-0.1111 0.0000-0.0119 ( 15065 PWs)   bands (ev):

   -10.3585 -10.3570 -10.2658 -10.2644 -10.2447 -10.2433 -10.2143 -10.2130
   -10.1925 -10.1911 -10.1893 -10.1893 -10.1879 -10.1879 -10.0674 -10.0660
   -10.0483 -10.0469 -10.0048 -10.0035  -9.0989  -9.0649  -8.9139  -8.8768
    -1.9771  -1.8803   0.4995   0.7990   2.6247   2.7286   2.7849   2.9263
     3.1957   3.2132   3.3386   3.3576   3.7393   4.3196   6.2141   6.6231
     7.3473   7.3486   8.2144   8.3202   8.8415   8.8578

     occupation numbers 
     1.0000   1.0000   1.0000   1.0000   1.0000   1.0000   1.0000   1.0000
     1.0000   1.0000   1.0000   1.0000   1.0000   1.0000   1.0000   1.0000
     1.0000   1.0000   1.0000   1.0000   1.0000   1.0000   1.0000   1.0000
     1.0000   1.0000   1.0000   1.0000   1.0000   1.0000   1.0000   1.0000
     1.0000   1.0000   1.0002   1.0003   1.0376   0.4772   0.0000   0.0000
     0.0000   0.0000   0.0000   0.0000   0.0000   0.0000

          k =-0.1111 0.0000-0.0358 ( 15072 PWs)   bands (ev):

   -10.3585 -10.3570 -10.2658 -10.2644 -10.2447 -10.2433 -10.2143 -10.2130
   -10.1925 -10.1911 -10.1893 -10.1893 -10.1879 -10.1879 -10.0674 -10.0660
   -10.0483 -10.0469 -10.0048 -10.0035  -9.0971  -9.0674  -8.9112  -8.8787
    -1.9716  -1.8865   0.5167   0.7798   2.6303   2.7184   2.7962   2.9163
     3.1967   3.2120   3.3399   3.3566   3.7745   4.2822   6.2430   6.6011
     7.3477   7.3488   8.2209   8.3138   8.8424   8.8568

     occupation numbers 
     1.0000   1.0000   1.0000   1.0000   1.0000   1.0000   1.0000   1.0000
     1.0000   1.0000   1.0000   1.0000   1.0000   1.0000   1.0000   1.0000
     1.0000   1.0000   1.0000   1.0000   1.0000   1.0000   1.0000   1.0000
     1.0000   1.0000   1.0000   1.0000   1.0000   1.0000   1.0000   1.0000
     1.0000   1.0000   1.0002   1.0003   1.0480   0.5697   0.0000   0.0000
     0.0000   0.0000   0.0000   0.0000   0.0000   0.0000

          k =-0.1111 0.0000-0.0596 ( 15075 PWs)   bands (ev):

   -10.3585 -10.3570 -10.2658 -10.2644 -10.2447 -10.2433 -10.2143 -10.2130
   -10.1925 -10.1911 -10.1893 -10.1893 -10.1879 -10.1879 -10.0674 -10.0660
   -10.0483 -10.0469 -10.0048 -10.0035  -9.0938  -9.0719  -8.9063  -8.8824
    -1.9612  -1.8981   0.5492   0.7441   2.6408   2.7036   2.8133   2.8988
     3.1985   3.2099   3.3422   3.3546   3.8396   4.2137   6.2951   6.5592
     7.3483   7.3492   8.2330   8.3020   8.8442   8.8550

     occupation numbers 
     1.0000   1.0000   1.0000   1.0000   1.0000   1.0000   1.0000   1.0000
     1.0000   1.0000   1.0000   1.0000   1.0000   1.0000   1.0000   1.0000
     1.0000   1.0000   1.0000   1.0000   1.0000   1.0000   1.0000   1.0000
     1.0000   1.0000   1.0000   1.0000   1.0000   1.0000   1.0000   1.0000
     1.0000   1.0000   1.0003   1.0003   1.0680   0.7395   0.0000   0.0000
     0.0000   0.0000   0.0000   0.0000   0.0000   0.0000

          k =-0.1111 0.0000-0.0834 ( 15082 PWs)   bands (ev):

   -10.3585 -10.3570 -10.2658 -10.2644 -10.2447 -10.2433 -10.2143 -10.2130
   -10.1925 -10.1911 -10.1893 -10.1893 -10.1879 -10.1879 -10.0674 -10.0661
   -10.0483 -10.0469 -10.0048 -10.0035  -9.0892  -9.0775  -8.9002  -8.8875
    -1.9469  -1.9133   0.5935   0.6971   2.6546   2.6872   2.8332   2.8775
     3.2010   3.2070   3.3453   3.3519   3.9262   4.1241   6.3616   6.5014
     7.3487   7.3496   8.2493   8.2859   8.8466   8.8525

     occupation numbers 
     1.0000   1.0000   1.0000   1.0000   1.0000   1.0000   1.0000   1.0000
     1.0000   1.0000   1.0000   1.0000   1.0000   1.0000   1.0000   1.0000
     1.0000   1.0000   1.0000   1.0000   1.0000   1.0000   1.0000   1.0000
     1.0000   1.0000   1.0000   1.0000   1.0000   1.0000   1.0000   1.0000
     1.0000   1.0000   1.0003   1.0003   1.0833   0.9276   0.0000   0.0000
     0.0000   0.0000   0.0000   0.0000   0.0000   0.0000

          k =-0.1111 0.0000 0.1073 ( 15076 PWs)   bands (ev):

   -10.3585 -10.3570 -10.2658 -10.2644 -10.2447 -10.2433 -10.2143 -10.2130
   -10.1925 -10.1911 -10.1893 -10.1893 -10.1879 -10.1879 -10.0674 -10.0661
   -10.0483 -10.0469 -10.0048 -10.0035  -9.0838  -9.0833  -8.8939  -8.8934
    -1.9312  -1.9295   0.6445   0.6451   2.6705   2.6706   2.8546   2.8554
     3.2037   3.2042   3.3484   3.3488   4.0241   4.0250   6.4320   6.4344
     7.3489   7.3498   8.2669   8.2684   8.8488   8.8503

     occupation numbers 
     1.0000   1.0000   1.0000   1.0000   1.0000   1.0000   1.0000   1.0000
     1.0000   1.0000   1.0000   1.0000   1.0000   1.0000   1.0000   1.0000
     1.0000   1.0000   1.0000   1.0000   1.0000   1.0000   1.0000   1.0000
     1.0000   1.0000   1.0000   1.0000   1.0000   1.0000   1.0000   1.0000
     1.0000   1.0000   1.0003   1.0003   1.0512   1.0505   0.0000   0.0000
     0.0000   0.0000   0.0000   0.0000   0.0000   0.0000

          k =-0.2222 0.0642-0.0119 ( 15024 PWs)   bands (ev):

   -10.3656 -10.3641 -10.3060 -10.3044 -10.2658 -10.2641 -10.2426 -10.2412
   -10.1963 -10.1949 -10.1829 -10.1815 -10.1795 -10.1782 -10.0816 -10.0802
   -10.0501 -10.0487  -9.9749  -9.9736  -8.8064  -8.7751  -8.6426  -8.6084
    -1.8946  -1.8354   0.2714   0.3395   1.4954   1.6389   1.8670   2.2642
     2.7508   2.7741   2.9466   2.9726   3.7844   4.1560   6.9588   7.1221
     7.1714   7.3377   8.5281   8.6515   9.2280   9.2343

     occupation numbers 
     1.0000   1.0000   1.0000   1.0000   1.0000   1.0000   1.0000   1.0000
     1.0000   1.0000   1.0000   1.0000   1.0000   1.0000   1.0000   1.0000
     1.0000   1.0000   1.0000   1.0000   1.0000   1.0000   1.0000   1.0000
     1.0000   1.0000   1.0000   1.0000   1.0000   1.0000   1.0000   1.0000
     1.0000   1.0000   1.0000   1.0000   1.0511   0.8676   0.0000   0.0000
     0.0000   0.0000   0.0000   0.0000   0.0000   0.0000

          k =-0.2222 0.0642-0.0358 ( 15027 PWs)   bands (ev):

   -10.3655 -10.3641 -10.3060 -10.3044 -10.2658 -10.2642 -10.2426 -10.2412
   -10.1963 -10.1949 -10.1829 -10.1815 -10.1795 -10.1782 -10.0816 -10.0802
   -10.0501 -10.0487  -9.9749  -9.9736  -8.8049  -8.7774  -8.6401  -8.6101
    -1.8912  -1.8391   0.2756   0.3355   1.5006   1.6217   1.8967   2.2398
     2.7521   2.7726   2.9483   2.9711   3.8105   4.1363   6.9629   7.0901
     7.2037   7.3335   8.5329   8.6403   9.2198   9.2327

     occupation numbers 
     1.0000   1.0000   1.0000   1.0000   1.0000   1.0000   1.0000   1.0000
     1.0000   1.0000   1.0000   1.0000   1.0000   1.0000   1.0000   1.0000
     1.0000   1.0000   1.0000   1.0000   1.0000   1.0000   1.0000   1.0000
     1.0000   1.0000   1.0000   1.0000   1.0000   1.0000   1.0000   1.0000
     1.0000   1.0000   1.0000   1.0000   1.0593   0.9057   0.0000   0.0000
     0.0000   0.0000   0.0000   0.0000   0.0000   0.0000

          k =-0.2222 0.0642-0.0596 ( 15033 PWs)   bands (ev):

   -10.3655 -10.3641 -10.3060 -10.3044 -10.2657 -10.2643 -10.2426 -10.2412
   -10.1963 -10.1949 -10.1829 -10.1815 -10.1795 -10.1782 -10.0816 -10.0802
   -10.0501 -10.0487  -9.9749  -9.9736  -8.8018  -8.7816  -8.6356  -8.6135
    -1.8846  -1.8460   0.2836   0.3281   1.5111   1.5965   1.9462   2.1953
     2.7546   2.7698   2.9514   2.9684   3.8579   4.0985   6.9716   7.0578
     7.2366   7.3247   8.5427   8.6211   9.2155   9.2300

     occupation numbers 
     1.0000   1.0000   1.0000   1.0000   1.0000   1.0000   1.0000   1.0000
     1.0000   1.0000   1.0000   1.0000   1.0000   1.0000   1.0000   1.0000
     1.0000   1.0000   1.0000   1.0000   1.0000   1.0000   1.0000   1.0000
     1.0000   1.0000   1.0000   1.0000   1.0000   1.0000   1.0000   1.0000
     1.0000   1.0000   1.0000   1.0000   1.0730   0.9688   0.0000   0.0000
     0.0000   0.0000   0.0000   0.0000   0.0000   0.0000

          k =-0.2222 0.0642-0.0834 ( 15028 PWs)   bands (ev):

   -10.3655 -10.3641 -10.3059 -10.3045 -10.2656 -10.2643 -10.2426 -10.2412
   -10.1963 -10.1949 -10.1829 -10.1815 -10.1795 -10.1782 -10.0816 -10.0802
   -10.0501 -10.0487  -9.9749  -9.9736  -8.7975  -8.7868  -8.6299  -8.6182
    -1.8758  -1.8552   0.2943   0.3179   1.5265   1.5703   2.0067   2.1371
     2.7580   2.7661   2.9555   2.9645   3.9185   4.0460   6.9852   7.0287
     7.2662   7.3107   8.5573   8.5985   9.2146   9.2271

     occupation numbers 
     1.0000   1.0000   1.0000   1.0000   1.0000   1.0000   1.0000   1.0000
     1.0000   1.0000   1.0000   1.0000   1.0000   1.0000   1.0000   1.0000
     1.0000   1.0000   1.0000   1.0000   1.0000   1.0000   1.0000   1.0000
     1.0000   1.0000   1.0000   1.0000   1.0000   1.0000   1.0000   1.0000
     1.0000   1.0000   1.0000   1.0000   1.0831   1.0327   0.0000   0.0000
     0.0000   0.0000   0.0000   0.0000   0.0000   0.0000

          k =-0.2222 0.0642 0.1073 ( 15028 PWs)   bands (ev):

   -10.3655 -10.3641 -10.3059 -10.3045 -10.2656 -10.2644 -10.2426 -10.2412
   -10.1963 -10.1949 -10.1829 -10.1815 -10.1795 -10.1782 -10.0816 -10.0802
   -10.0501 -10.0487  -9.9749  -9.9736  -8.7926  -8.7921  -8.6241  -8.6236
    -1.8663  -1.8648   0.3060   0.3063   1.5460   1.5469   2.0710   2.0734
     2.7618   2.7622   2.9599   2.9602   3.9827   3.9850   7.0035   7.0052
     7.2892   7.2931   8.5748   8.5779   9.2148   9.2257

     occupation numbers 
     1.0000   1.0000   1.0000   1.0000   1.0000   1.0000   1.0000   1.0000
     1.0000   1.0000   1.0000   1.0000   1.0000   1.0000   1.0000   1.0000
     1.0000   1.0000   1.0000   1.0000   1.0000   1.0000   1.0000   1.0000
     1.0000   1.0000   1.0000   1.0000   1.0000   1.0000   1.0000   1.0000
     1.0000   1.0000   1.0000   1.0000   1.0738   1.0729   0.0000   0.0000
     0.0000   0.0000   0.0000   0.0000   0.0000   0.0000

          k =-0.3333 0.1283-0.0119 ( 15012 PWs)   bands (ev):

   -10.3943 -10.3927 -10.3233 -10.3218 -10.3163 -10.3147 -10.2417 -10.2402
   -10.2015 -10.2001 -10.1724 -10.1710 -10.1666 -10.1653 -10.0891 -10.0877
   -10.0526 -10.0513  -9.9529  -9.9516  -8.3846  -8.3580  -8.2511  -8.2225
    -2.0329  -2.0219  -0.6374  -0.6059   0.7966   0.9770   1.8097   2.2109
     2.2918   2.3168   2.5405   2.5614   3.5460   3.6743   6.5347   6.7746
     6.8188   6.8744   8.8815   8.9993   9.0388   9.1192

     occupation numbers 
     1.0000   1.0000   1.0000   1.0000   1.0000   1.0000   1.0000   1.0000
     1.0000   1.0000   1.0000   1.0000   1.0000   1.0000   1.0000   1.0000
     1.0000   1.0000   1.0000   1.0000   1.0000   1.0000   1.0000   1.0000
     1.0000   1.0000   1.0000   1.0000   1.0000   1.0000   1.0000   1.0000
     1.0000   1.0000   1.0000   1.0000   1.0054   1.0218   0.0000   0.0000
     0.0000   0.0000   0.0000   0.0000   0.0000   0.0000

          k =-0.3333 0.1283-0.0358 ( 15008 PWs)   bands (ev):

   -10.3943 -10.3927 -10.3233 -10.3218 -10.3163 -10.3147 -10.2417 -10.2402
   -10.2015 -10.2001 -10.1724 -10.1710 -10.1666 -10.1653 -10.0891 -10.0877
   -10.0526 -10.0513  -9.9529  -9.9516  -8.3833  -8.3600  -8.2490  -8.2240
    -2.0323  -2.0225  -0.6356  -0.6078   0.8050   0.9623   1.8362   2.1869
     2.2936   2.3166   2.5406   2.5595   3.5561   3.6684   6.5457   6.7567
     6.8186   6.8818   8.8825   8.9773   9.0500   9.1134

     occupation numbers 
     1.0000   1.0000   1.0000   1.0000   1.0000   1.0000   1.0000   1.0000
     1.0000   1.0000   1.0000   1.0000   1.0000   1.0000   1.0000   1.0000
     1.0000   1.0000   1.0000   1.0000   1.0000   1.0000   1.0000   1.0000
     1.0000   1.0000   1.0000   1.0000   1.0000   1.0000   1.0000   1.0000
     1.0000   1.0000   1.0000   1.0000   1.0061   1.0206   0.0000   0.0000
     0.0000   0.0000   0.0000   0.0000   0.0000   0.0000

          k =-0.3333 0.1283-0.0596 ( 15009 PWs)   bands (ev):

   -10.3942 -10.3928 -10.3233 -10.3218 -10.3162 -10.3148 -10.2417 -10.2402
   -10.2015 -10.2001 -10.1724 -10.1710 -10.1666 -10.1653 -10.0891 -10.0877
   -10.0526 -10.0513  -9.9529  -9.9516  -8.3807  -8.3635  -8.2452  -8.2268
    -2.0310  -2.0238  -0.6320  -0.6114   0.8213   0.9367   1.8846   2.1428
     2.2969   2.3147   2.5415   2.5560   3.5740   3.6569   6.5671   6.7217
     6.8288   6.8855   8.8843   8.9542   9.0573   9.1030

     occupation numbers 
     1.0000   1.0000   1.0000   1.0000   1.0000   1.0000   1.0000   1.0000
     1.0000   1.0000   1.0000   1.0000   1.0000   1.0000   1.0000   1.0000
     1.0000   1.0000   1.0000   1.0000   1.0000   1.0000   1.0000   1.0000
     1.0000   1.0000   1.0000   1.0000   1.0000   1.0000   1.0000   1.0000
     1.0000   1.0000   1.0000   1.0000   1.0075   1.0185   0.0000   0.0000
     0.0000   0.0000   0.0000   0.0000   0.0000   0.0000

          k =-0.3333 0.1283-0.0834 ( 15003 PWs)   bands (ev):

   -10.3942 -10.3928 -10.3233 -10.3218 -10.3161 -10.3148 -10.2417 -10.2402
   -10.2015 -10.2001 -10.1724 -10.1710 -10.1666 -10.1653 -10.0891 -10.0877
   -10.0526 -10.0513  -9.9529  -9.9516  -8.3771  -8.3680  -8.2404  -8.2307
    -2.0294  -2.0254  -0.6272  -0.6162   0.8447   0.9055   1.9472   2.0838
     2.3012   2.3110   2.5438   2.5518   3.5962   3.6403   6.5976   6.6801
     6.8432   6.8826   8.8866   8.9367   9.0641   9.0906

     occupation numbers 
     1.0000   1.0000   1.0000   1.0000   1.0000   1.0000   1.0000   1.0000
     1.0000   1.0000   1.0000   1.0000   1.0000   1.0000   1.0000   1.0000
     1.0000   1.0000   1.0000   1.0000   1.0000   1.0000   1.0000   1.0000
     1.0000   1.0000   1.0000   1.0000   1.0000   1.0000   1.0000   1.0000
     1.0000   1.0000   1.0000   1.0000   1.0098   1.0157   0.0000   0.0000
     0.0000   0.0000   0.0000   0.0000   0.0000   0.0000

          k =-0.3333 0.1283 0.1073 ( 14994 PWs)   bands (ev):

   -10.3941 -10.3929 -10.3233 -10.3218 -10.3161 -10.3149 -10.2417 -10.2402
   -10.2015 -10.2001 -10.1724 -10.1710 -10.1666 -10.1653 -10.0891 -10.0877
   -10.0526 -10.0513  -9.9529  -9.9516  -8.3729  -8.3724  -8.2357  -8.2351
    -2.0280  -2.0268  -0.6219  -0.6216   0.8724   0.8748   2.0136   2.0188
     2.3059   2.3066   2.5473   2.5476   3.6165   3.6221   6.6282   6.6454
     6.8514   6.8786   8.8878   8.9299   9.0700   9.0822

     occupation numbers 
     1.0000   1.0000   1.0000   1.0000   1.0000   1.0000   1.0000   1.0000
     1.0000   1.0000   1.0000   1.0000   1.0000   1.0000   1.0000   1.0000
     1.0000   1.0000   1.0000   1.0000   1.0000   1.0000   1.0000   1.0000
     1.0000   1.0000   1.0000   1.0000   1.0000   1.0000   1.0000   1.0000
     1.0000   1.0000   1.0000   1.0000   1.0122   1.0130   0.0000   0.0000
     0.0000   0.0000   0.0000   0.0000   0.0000   0.0000

          k =-0.4444 0.1925-0.0119 ( 14988 PWs)   bands (ev):

   -10.4215 -10.4201 -10.3474 -10.3460 -10.3244 -10.3228 -10.2419 -10.2405
   -10.2056 -10.2042 -10.1632 -10.1618 -10.1566 -10.1552 -10.0930 -10.0916
   -10.0547 -10.0533  -9.9401  -9.9387  -8.0023  -7.9843  -7.9015  -7.8826
    -2.4583  -2.4436  -1.4417  -1.4182   0.8601   0.9965   2.0262   2.0463
     2.0755   2.1725   2.3276   2.4650   2.9543   3.0460   6.3318   6.3853
     6.4756   6.5859   8.5381   8.5658   8.6126   8.7386

     occupation numbers 
     1.0000   1.0000   1.0000   1.0000   1.0000   1.0000   1.0000   1.0000
     1.0000   1.0000   1.0000   1.0000   1.0000   1.0000   1.0000   1.0000
     1.0000   1.0000   1.0000   1.0000   1.0000   1.0000   1.0000   1.0000
     1.0000   1.0000   1.0000   1.0000   1.0000   1.0000   1.0000   1.0000
     1.0000   1.0000   1.0000   1.0000   1.0000   1.0000   0.0000   0.0000
     0.0000   0.0000   0.0000   0.0000   0.0000   0.0000

          k =-0.4444 0.1925-0.0358 ( 14975 PWs)   bands (ev):

   -10.4215 -10.4201 -10.3474 -10.3460 -10.3244 -10.3228 -10.2419 -10.2405
   -10.2056 -10.2042 -10.1632 -10.1618 -10.1566 -10.1552 -10.0930 -10.0916
   -10.0547 -10.0533  -9.9401  -9.9387  -8.0014  -7.9856  -7.9001  -7.8836
    -2.4575  -2.4445  -1.4403  -1.4196   0.8674   0.9872   2.0231   2.0425
     2.0907   2.1723   2.3311   2.4525   2.9611   3.0420   6.3140   6.4088
     6.4631   6.5942   8.5221   8.5580   8.6320   8.7415

     occupation numbers 
     1.0000   1.0000   1.0000   1.0000   1.0000   1.0000   1.0000   1.0000
     1.0000   1.0000   1.0000   1.0000   1.0000   1.0000   1.0000   1.0000
     1.0000   1.0000   1.0000   1.0000   1.0000   1.0000   1.0000   1.0000
     1.0000   1.0000   1.0000   1.0000   1.0000   1.0000   1.0000   1.0000
     1.0000   1.0000   1.0000   1.0000   1.0000   1.0000   0.0000   0.0000
     0.0000   0.0000   0.0000   0.0000   0.0000   0.0000

          k =-0.4444 0.1925-0.0596 ( 14973 PWs)   bands (ev):

   -10.4214 -10.4201 -10.3473 -10.3461 -10.3244 -10.3228 -10.2419 -10.2405
   -10.2056 -10.2042 -10.1632 -10.1618 -10.1566 -10.1552 -10.0930 -10.0916
   -10.0547 -10.0533  -9.9401  -9.9387  -7.9996  -7.9880  -7.8977  -7.8855
    -2.4558  -2.4462  -1.4376  -1.4223   0.8814   0.9701   2.0212   2.0373
     2.1125   2.1705   2.3393   2.4303   2.9732   3.0342   6.3050   6.3962
     6.4825   6.5987   8.5048   8.5457   8.6588   8.7417

     occupation numbers 
     1.0000   1.0000   1.0000   1.0000   1.0000   1.0000   1.0000   1.0000
     1.0000   1.0000   1.0000   1.0000   1.0000   1.0000   1.0000   1.0000
     1.0000   1.0000   1.0000   1.0000   1.0000   1.0000   1.0000   1.0000
     1.0000   1.0000   1.0000   1.0000   1.0000   1.0000   1.0000   1.0000
     1.0000   1.0000   1.0000   1.0000   1.0000   1.0000   0.0000   0.0000
     0.0000   0.0000   0.0000   0.0000   0.0000   0.0000

          k =-0.4444 0.1925-0.0834 ( 14980 PWs)   bands (ev):

   -10.4214 -10.4201 -10.3473 -10.3461 -10.3244 -10.3228 -10.2419 -10.2405
   -10.2056 -10.2042 -10.1632 -10.1618 -10.1566 -10.1552 -10.0930 -10.0916
   -10.0547 -10.0533  -9.9401  -9.9387  -7.9971  -7.9910  -7.8946  -7.8881
    -2.4536  -2.4485  -1.4340  -1.4258   0.9009   0.9481   2.0220   2.0317
     2.1347   2.1646   2.3537   2.4034   2.9877   3.0233   6.3083   6.3659
     6.5161   6.5940   8.4925   8.5357   8.6850   8.7351

     occupation numbers 
     1.0000   1.0000   1.0000   1.0000   1.0000   1.0000   1.0000   1.0000
     1.0000   1.0000   1.0000   1.0000   1.0000   1.0000   1.0000   1.0000
     1.0000   1.0000   1.0000   1.0000   1.0000   1.0000   1.0000   1.0000
     1.0000   1.0000   1.0000   1.0000   1.0000   1.0000   1.0000   1.0000
     1.0000   1.0000   1.0000   1.0000   1.0000   1.0000   0.0000   0.0000
     0.0000   0.0000   0.0000   0.0000   0.0000   0.0000

          k =-0.4444 0.1925 0.1073 ( 14970 PWs)   bands (ev):

   -10.4214 -10.4201 -10.3473 -10.3461 -10.3244 -10.3228 -10.2419 -10.2405
   -10.2056 -10.2042 -10.1632 -10.1618 -10.1566 -10.1552 -10.0930 -10.0916
   -10.0547 -10.0533  -9.9401  -9.9387  -7.9944  -7.9939  -7.8915  -7.8909
    -2.4515  -2.4506  -1.4301  -1.4297   0.9218   0.9262   2.0239   2.0281
     2.1525   2.1533   2.3702   2.3819   2.9973   3.0151   6.3157   6.3483
     6.5333   6.5879   8.4881   8.5320   8.6999   8.7273

     occupation numbers 
     1.0000   1.0000   1.0000   1.0000   1.0000   1.0000   1.0000   1.0000
     1.0000   1.0000   1.0000   1.0000   1.0000   1.0000   1.0000   1.0000
     1.0000   1.0000   1.0000   1.0000   1.0000   1.0000   1.0000   1.0000
     1.0000   1.0000   1.0000   1.0000   1.0000   1.0000   1.0000   1.0000
     1.0000   1.0000   1.0000   1.0000   1.0000   1.0000   0.0000   0.0000
     0.0000   0.0000   0.0000   0.0000   0.0000   0.0000

          k = 0.4444-0.3208-0.0119 ( 14987 PWs)   bands (ev):

   -10.4275 -10.4261 -10.3538 -10.3525 -10.3242 -10.3226 -10.2421 -10.2406
   -10.2065 -10.2051 -10.1611 -10.1597 -10.1543 -10.1530 -10.0937 -10.0924
   -10.0551 -10.0538  -9.9374  -9.9361  -7.9039  -7.8901  -7.8128  -7.7984
    -2.5880  -2.5787  -1.6267  -1.6086   0.9821   1.0587   1.9941   2.0080
     2.1082   2.1283   2.3472   2.4828   2.7403   2.8236   6.2208   6.3696
     6.3951   6.5343   8.4185   8.4868   8.5058   8.6290

     occupation numbers 
     1.0000   1.0000   1.0000   1.0000   1.0000   1.0000   1.0000   1.0000
     1.0000   1.0000   1.0000   1.0000   1.0000   1.0000   1.0000   1.0000
     1.0000   1.0000   1.0000   1.0000   1.0000   1.0000   1.0000   1.0000
     1.0000   1.0000   1.0000   1.0000   1.0000   1.0000   1.0000   1.0000
     1.0000   1.0000   1.0000   1.0000   1.0000   1.0000   0.0000   0.0000
     0.0000   0.0000   0.0000   0.0000   0.0000   0.0000

          k = 0.4444-0.3208-0.0358 ( 14975 PWs)   bands (ev):

   -10.4275 -10.4262 -10.3538 -10.3525 -10.3241 -10.3226 -10.2421 -10.2406
   -10.2065 -10.2051 -10.1611 -10.1597 -10.1543 -10.1530 -10.0937 -10.0924
   -10.0551 -10.0538  -9.9374  -9.9361  -7.9032  -7.8911  -7.8117  -7.7992
    -2.5875  -2.5793  -1.6256  -1.6097   0.9866   1.0541   1.9934   2.0055
     2.1117   2.1292   2.3518   2.4709   2.7483   2.8226   6.2141   6.3418
     6.4202   6.5445   8.4082   8.4717   8.5235   8.6342

     occupation numbers 
     1.0000   1.0000   1.0000   1.0000   1.0000   1.0000   1.0000   1.0000
     1.0000   1.0000   1.0000   1.0000   1.0000   1.0000   1.0000   1.0000
     1.0000   1.0000   1.0000   1.0000   1.0000   1.0000   1.0000   1.0000
     1.0000   1.0000   1.0000   1.0000   1.0000   1.0000   1.0000   1.0000
     1.0000   1.0000   1.0000   1.0000   1.0000   1.0000   0.0000   0.0000
     0.0000   0.0000   0.0000   0.0000   0.0000   0.0000

          k = 0.4444-0.3208-0.0596 ( 14983 PWs)   bands (ev):

   -10.4275 -10.4262 -10.3537 -10.3525 -10.3241 -10.3226 -10.2421 -10.2406
   -10.2065 -10.2051 -10.1611 -10.1597 -10.1543 -10.1530 -10.0937 -10.0924
   -10.0551 -10.0538  -9.9374  -9.9361  -7.9018  -7.8929  -7.8099  -7.8006
    -2.5864  -2.5803  -1.6236  -1.6118   0.9951   1.0453   1.9926   2.0016
     2.1173   2.1301   2.3612   2.4509   2.7610   2.8199   6.2097   6.3046
     6.4541   6.5531   8.3971   8.4499   8.5511   8.6355

     occupation numbers 
     1.0000   1.0000   1.0000   1.0000   1.0000   1.0000   1.0000   1.0000
     1.0000   1.0000   1.0000   1.0000   1.0000   1.0000   1.0000   1.0000
     1.0000   1.0000   1.0000   1.0000   1.0000   1.0000   1.0000   1.0000
     1.0000   1.0000   1.0000   1.0000   1.0000   1.0000   1.0000   1.0000
     1.0000   1.0000   1.0000   1.0000   1.0000   1.0000   0.0000   0.0000
     0.0000   0.0000   0.0000   0.0000   0.0000   0.0000

          k = 0.4444-0.3208-0.0834 ( 14989 PWs)   bands (ev):

   -10.4275 -10.4262 -10.3537 -10.3525 -10.3241 -10.3226 -10.2421 -10.2406
   -10.2065 -10.2051 -10.1611 -10.1597 -10.1543 -10.1530 -10.0937 -10.0924
   -10.0551 -10.0538  -9.9374  -9.9361  -7.8999  -7.8951  -7.8076  -7.8026
    -2.5850  -2.5817  -1.6208  -1.6145   1.0066   1.0337   1.9922   1.9982
     2.1230   2.1299   2.3747   2.4285   2.7737   2.8156   6.2144   6.2688
     6.4857   6.5536   8.3900   8.4321   8.5802   8.6274

     occupation numbers 
     1.0000   1.0000   1.0000   1.0000   1.0000   1.0000   1.0000   1.0000
     1.0000   1.0000   1.0000   1.0000   1.0000   1.0000   1.0000   1.0000
     1.0000   1.0000   1.0000   1.0000   1.0000   1.0000   1.0000   1.0000
     1.0000   1.0000   1.0000   1.0000   1.0000   1.0000   1.0000   1.0000
     1.0000   1.0000   1.0000   1.0000   1.0000   1.0000   0.0000   0.0000
     0.0000   0.0000   0.0000   0.0000   0.0000   0.0000

          k = 0.4444-0.3208 0.1073 ( 14998 PWs)   bands (ev):

   -10.4275 -10.4262 -10.3537 -10.3525 -10.3241 -10.3226 -10.2421 -10.2406
   -10.2065 -10.2051 -10.1611 -10.1597 -10.1543 -10.1530 -10.0937 -10.0924
   -10.0551 -10.0538  -9.9374  -9.9361  -7.8979  -7.8973  -7.8054  -7.8048
    -2.5838  -2.5830  -1.6179  -1.6175   1.0173   1.0229   1.9922   1.9967
     2.1266   2.1285   2.3848   2.4149   2.7797   2.8128   6.2234   6.2484
     6.5004   6.5506   8.3878   8.4252   8.6007   8.6143

     occupation numbers 
     1.0000   1.0000   1.0000   1.0000   1.0000   1.0000   1.0000   1.0000
     1.0000   1.0000   1.0000   1.0000   1.0000   1.0000   1.0000   1.0000
     1.0000   1.0000   1.0000   1.0000   1.0000   1.0000   1.0000   1.0000
     1.0000   1.0000   1.0000   1.0000   1.0000   1.0000   1.0000   1.0000
     1.0000   1.0000   1.0000   1.0000   1.0000   1.0000   0.0000   0.0000
     0.0000   0.0000   0.0000   0.0000   0.0000   0.0000

          k = 0.3333-0.2566-0.0119 ( 14992 PWs)   bands (ev):

   -10.4099 -10.4084 -10.3348 -10.3333 -10.3245 -10.3229 -10.2417 -10.2403
   -10.2039 -10.2025 -10.1672 -10.1658 -10.1609 -10.1595 -10.0914 -10.0900
   -10.0538 -10.0524  -9.9453  -9.9439  -8.1739  -8.1511  -8.0576  -8.0334
    -2.2450  -2.2295  -1.0966  -1.0669   0.7584   0.9311   1.9506   2.1270
     2.1493   2.2282   2.4014   2.4529   3.2684   3.3543   6.4090   6.5397
     6.6509   6.6820   8.7178   8.7594   8.8050   8.9301

     occupation numbers 
     1.0000   1.0000   1.0000   1.0000   1.0000   1.0000   1.0000   1.0000
     1.0000   1.0000   1.0000   1.0000   1.0000   1.0000   1.0000   1.0000
     1.0000   1.0000   1.0000   1.0000   1.0000   1.0000   1.0000   1.0000
     1.0000   1.0000   1.0000   1.0000   1.0000   1.0000   1.0000   1.0000
     1.0000   1.0000   1.0000   1.0000   1.0001   1.0003   0.0000   0.0000
     0.0000   0.0000   0.0000   0.0000   0.0000   0.0000

          k = 0.3333-0.2566-0.0358 ( 14995 PWs)   bands (ev):

   -10.4099 -10.4085 -10.3347 -10.3333 -10.3245 -10.3229 -10.2417 -10.2403
   -10.2039 -10.2025 -10.1672 -10.1658 -10.1609 -10.1595 -10.0914 -10.0900
   -10.0538 -10.0524  -9.9453  -9.9439  -8.1728  -8.1528  -8.0558  -8.0346
    -2.2441  -2.2305  -1.0948  -1.0687   0.7671   0.9183   1.9698   2.1294
     2.1450   2.2208   2.4012   2.4445   3.2748   3.3502   6.4129   6.5485
     6.6236   6.6982   8.7080   8.7431   8.8291   8.9313

     occupation numbers 
     1.0000   1.0000   1.0000   1.0000   1.0000   1.0000   1.0000   1.0000
     1.0000   1.0000   1.0000   1.0000   1.0000   1.0000   1.0000   1.0000
     1.0000   1.0000   1.0000   1.0000   1.0000   1.0000   1.0000   1.0000
     1.0000   1.0000   1.0000   1.0000   1.0000   1.0000   1.0000   1.0000
     1.0000   1.0000   1.0000   1.0000   1.0001   1.0003   0.0000   0.0000
     0.0000   0.0000   0.0000   0.0000   0.0000   0.0000

          k = 0.3333-0.2566-0.0596 ( 14990 PWs)   bands (ev):

   -10.4099 -10.4085 -10.3347 -10.3333 -10.3245 -10.3229 -10.2417 -10.2403
   -10.2039 -10.2025 -10.1672 -10.1658 -10.1609 -10.1595 -10.0914 -10.0901
   -10.0538 -10.0524  -9.9453  -9.9439  -8.1706  -8.1558  -8.0526  -8.0370
    -2.2423  -2.2322  -1.0914  -1.0720   0.7838   0.8953   2.0042   2.1309
     2.1394   2.2049   2.4016   2.4315   3.2863   3.3424   6.4235   6.5429
     6.6154   6.7039   8.6914   8.7335   8.8527   8.9323

     occupation numbers 
     1.0000   1.0000   1.0000   1.0000   1.0000   1.0000   1.0000   1.0000
     1.0000   1.0000   1.0000   1.0000   1.0000   1.0000   1.0000   1.0000
     1.0000   1.0000   1.0000   1.0000   1.0000   1.0000   1.0000   1.0000
     1.0000   1.0000   1.0000   1.0000   1.0000   1.0000   1.0000   1.0000
     1.0000   1.0000   1.0000   1.0000   1.0001   1.0003   0.0000   0.0000
     0.0000   0.0000   0.0000   0.0000   0.0000   0.0000

          k = 0.3333-0.2566-0.0834 ( 14989 PWs)   bands (ev):

   -10.4098 -10.4085 -10.3346 -10.3334 -10.3244 -10.3229 -10.2417 -10.2403
   -10.2039 -10.2025 -10.1672 -10.1658 -10.1609 -10.1595 -10.0914 -10.0901
   -10.0538 -10.0524  -9.9453  -9.9439  -8.1675  -8.1597  -8.0486  -8.0403
    -2.2400  -2.2346  -1.0869  -1.0766   0.8074   0.8664   2.0465   2.1164
     2.1463   2.1824   2.4039   2.4188   3.3006   3.3313   6.4421   6.5138
     6.6324   6.6994   8.6778   8.7286   8.8704   8.9312

     occupation numbers 
     1.0000   1.0000   1.0000   1.0000   1.0000   1.0000   1.0000   1.0000
     1.0000   1.0000   1.0000   1.0000   1.0000   1.0000   1.0000   1.0000
     1.0000   1.0000   1.0000   1.0000   1.0000   1.0000   1.0000   1.0000
     1.0000   1.0000   1.0000   1.0000   1.0000   1.0000   1.0000   1.0000
     1.0000   1.0000   1.0000   1.0000   1.0001   1.0002   0.0000   0.0000
     0.0000   0.0000   0.0000   0.0000   0.0000   0.0000

          k = 0.3333-0.2566 0.1073 ( 14988 PWs)   bands (ev):

   -10.4098 -10.4086 -10.3346 -10.3334 -10.3244 -10.3229 -10.2417 -10.2403
   -10.2039 -10.2025 -10.1672 -10.1658 -10.1609 -10.1595 -10.0914 -10.0901
   -10.0538 -10.0524  -9.9453  -9.9439  -8.1640  -8.1634  -8.0446  -8.0440
    -2.2378  -2.2369  -1.0819  -1.0815   0.8342   0.8375   2.0830   2.0914
     2.1598   2.1619   2.4085   2.4103   3.3118   3.3213   6.4587   6.4918
     6.6442   6.6939   8.6728   8.7269   8.8776   8.9299

     occupation numbers 
     1.0000   1.0000   1.0000   1.0000   1.0000   1.0000   1.0000   1.0000
     1.0000   1.0000   1.0000   1.0000   1.0000   1.0000   1.0000   1.0000
     1.0000   1.0000   1.0000   1.0000   1.0000   1.0000   1.0000   1.0000
     1.0000   1.0000   1.0000   1.0000   1.0000   1.0000   1.0000   1.0000
     1.0000   1.0000   1.0000   1.0000   1.0001   1.0002   0.0000   0.0000
     0.0000   0.0000   0.0000   0.0000   0.0000   0.0000

          k = 0.2222-0.1925-0.0119 ( 15014 PWs)   bands (ev):

   -10.3777 -10.3762 -10.3185 -10.3169 -10.2928 -10.2911 -10.2419 -10.2405
   -10.1989 -10.1975 -10.1779 -10.1765 -10.1731 -10.1718 -10.0859 -10.0845
   -10.0513 -10.0500  -9.9628  -9.9615  -8.6034  -8.5740  -8.4537  -8.4218
    -1.9133  -1.8830  -0.1323  -0.1118   1.0467   1.2129   1.7429   2.1855
     2.5068   2.5318   2.7283   2.7549   3.7162   3.9555   6.7899   6.9641
     7.0406   7.0596   8.8342   8.9649   9.2004   9.2249

     occupation numbers 
     1.0000   1.0000   1.0000   1.0000   1.0000   1.0000   1.0000   1.0000
     1.0000   1.0000   1.0000   1.0000   1.0000   1.0000   1.0000   1.0000
     1.0000   1.0000   1.0000   1.0000   1.0000   1.0000   1.0000   1.0000
     1.0000   1.0000   1.0000   1.0000   1.0000   1.0000   1.0000   1.0000
     1.0000   1.0000   1.0000   1.0000   1.0314   1.0811   0.0000   0.0000
     0.0000   0.0000   0.0000   0.0000   0.0000   0.0000

          k = 0.2222-0.1925-0.0358 ( 15029 PWs)   bands (ev):

   -10.3777 -10.3762 -10.3185 -10.3169 -10.2928 -10.2912 -10.2419 -10.2405
   -10.1989 -10.1975 -10.1779 -10.1765 -10.1731 -10.1718 -10.0859 -10.0845
   -10.0513 -10.0500  -9.9628  -9.9615  -8.6019  -8.5762  -8.4514  -8.4235
    -1.9115  -1.8849  -0.1311  -0.1130   1.0536   1.1971   1.7731   2.1589
     2.5083   2.5304   2.7298   2.7533   3.7341   3.9438   6.7963   6.9472
     7.0406   7.0691   8.8382   8.9513   9.1846   9.2257

     occupation numbers 
     1.0000   1.0000   1.0000   1.0000   1.0000   1.0000   1.0000   1.0000
     1.0000   1.0000   1.0000   1.0000   1.0000   1.0000   1.0000   1.0000
     1.0000   1.0000   1.0000   1.0000   1.0000   1.0000   1.0000   1.0000
     1.0000   1.0000   1.0000   1.0000   1.0000   1.0000   1.0000   1.0000
     1.0000   1.0000   1.0000   1.0000   1.0361   1.0826   0.0000   0.0000
     0.0000   0.0000   0.0000   0.0000   0.0000   0.0000

          k = 0.2222-0.1925-0.0596 ( 15026 PWs)   bands (ev):

   -10.3777 -10.3762 -10.3185 -10.3169 -10.2927 -10.2912 -10.2419 -10.2405
   -10.1989 -10.1975 -10.1779 -10.1765 -10.1731 -10.1718 -10.0859 -10.0845
   -10.0513 -10.0500  -9.9628  -9.9615  -8.5991  -8.5801  -8.4472  -8.4266
    -1.9081  -1.8883  -0.1288  -0.1154   1.0672   1.1711   1.8268   2.1096
     2.5111   2.5276   2.7326   2.7502   3.7663   3.9210   6.8094   6.9191
     7.0474   7.0754   8.8467   8.9286   9.1733   9.2228

     occupation numbers 
     1.0000   1.0000   1.0000   1.0000   1.0000   1.0000   1.0000   1.0000
     1.0000   1.0000   1.0000   1.0000   1.0000   1.0000   1.0000   1.0000
     1.0000   1.0000   1.0000   1.0000   1.0000   1.0000   1.0000   1.0000
     1.0000   1.0000   1.0000   1.0000   1.0000   1.0000   1.0000   1.0000
     1.0000   1.0000   1.0000   1.0000   1.0455   1.0832   0.0000   0.0000
     0.0000   0.0000   0.0000   0.0000   0.0000   0.0000

          k = 0.2222-0.1925-0.0834 ( 15021 PWs)   bands (ev):

   -10.3776 -10.3763 -10.3185 -10.3170 -10.2926 -10.2913 -10.2419 -10.2405
   -10.1989 -10.1975 -10.1779 -10.1765 -10.1731 -10.1718 -10.0859 -10.0845
   -10.0513 -10.0500  -9.9628  -9.9615  -8.5950  -8.5850  -8.4419  -8.4310
    -1.9035  -1.8929  -0.1257  -0.1186   1.0871   1.1413   1.8953   2.0443
     2.5149   2.5238   2.7366   2.7461   3.8067   3.8887   6.8294   6.8871
     7.0575   7.0758   8.8602   8.9030   9.1681   9.2195

     occupation numbers 
     1.0000   1.0000   1.0000   1.0000   1.0000   1.0000   1.0000   1.0000
     1.0000   1.0000   1.0000   1.0000   1.0000   1.0000   1.0000   1.0000
     1.0000   1.0000   1.0000   1.0000   1.0000   1.0000   1.0000   1.0000
     1.0000   1.0000   1.0000   1.0000   1.0000   1.0000   1.0000   1.0000
     1.0000   1.0000   1.0000   1.0000   1.0581   1.0797   0.0000   0.0000
     0.0000   0.0000   0.0000   0.0000   0.0000   0.0000

          k = 0.2222-0.1925 0.1073 ( 15020 PWs)   bands (ev):

   -10.3776 -10.3763 -10.3185 -10.3170 -10.2925 -10.2913 -10.2419 -10.2405
   -10.1989 -10.1975 -10.1779 -10.1765 -10.1731 -10.1718 -10.0859 -10.0845
   -10.0513 -10.0500  -9.9628  -9.9615  -8.5905  -8.5900  -8.4365  -8.4360
    -1.8989  -1.8975  -0.1223  -0.1221   1.1115   1.1131   1.9686   1.9720
     2.5191   2.5195   2.7412   2.7414   3.8475   3.8511   6.8531   6.8590
     7.0641   7.0731   8.8783   8.8803   9.1667   9.2181

     occupation numbers 
     1.0000   1.0000   1.0000   1.0000   1.0000   1.0000   1.0000   1.0000
     1.0000   1.0000   1.0000   1.0000   1.0000   1.0000   1.0000   1.0000
     1.0000   1.0000   1.0000   1.0000   1.0000   1.0000   1.0000   1.0000
     1.0000   1.0000   1.0000   1.0000   1.0000   1.0000   1.0000   1.0000
     1.0000   1.0000   1.0000   1.0000   1.0702   1.0712   0.0000   0.0000
     0.0000   0.0000   0.0000   0.0000   0.0000   0.0000

          k = 0.1111-0.1283-0.0119 ( 15047 PWs)   bands (ev):

   -10.3601 -10.3586 -10.2861 -10.2846 -10.2437 -10.2422 -10.2381 -10.2366
   -10.1941 -10.1927 -10.1868 -10.1854 -10.1851 -10.1838 -10.0757 -10.0742
   -10.0490 -10.0477  -9.9891  -9.9878  -8.9762  -8.9433  -8.8004  -8.7644
    -1.9309  -1.8485   0.4567   0.6530   2.0592   2.1820   2.2578   2.5270
     2.9944   3.0144   3.1627   3.1849   3.7826   4.2718   6.6717   6.9731
     7.5416   7.5878   8.1032   8.2555   9.0516   9.0695

     occupation numbers 
     1.0000   1.0000   1.0000   1.0000   1.0000   1.0000   1.0000   1.0000
     1.0000   1.0000   1.0000   1.0000   1.0000   1.0000   1.0000   1.0000
     1.0000   1.0000   1.0000   1.0000   1.0000   1.0000   1.0000   1.0000
     1.0000   1.0000   1.0000   1.0000   1.0000   1.0000   1.0000   1.0000
     1.0000   1.0000   1.0000   1.0000   1.0505   0.5959   0.0000   0.0000
     0.0000   0.0000   0.0000   0.0000   0.0000   0.0000

          k = 0.1111-0.1283-0.0358 ( 15055 PWs)   bands (ev):

   -10.3601 -10.3586 -10.2861 -10.2846 -10.2437 -10.2422 -10.2381 -10.2366
   -10.1941 -10.1927 -10.1868 -10.1854 -10.1851 -10.1838 -10.0757 -10.0743
   -10.0490 -10.0477  -9.9891  -9.9878  -8.9745  -8.9457  -8.7978  -8.7663
    -1.9262  -1.8538   0.4685   0.6411   2.0638   2.1642   2.2819   2.5098
     2.9955   3.0131   3.1642   3.1837   3.8148   4.2435   6.6899   6.9538
     7.5469   7.5867   8.1114   8.2453   9.0525   9.0683

     occupation numbers 
     1.0000   1.0000   1.0000   1.0000   1.0000   1.0000   1.0000   1.0000
     1.0000   1.0000   1.0000   1.0000   1.0000   1.0000   1.0000   1.0000
     1.0000   1.0000   1.0000   1.0000   1.0000   1.0000   1.0000   1.0000
     1.0000   1.0000   1.0000   1.0000   1.0000   1.0000   1.0000   1.0000
     1.0000   1.0000   1.0000   1.0000   1.0606   0.6669   0.0000   0.0000
     0.0000   0.0000   0.0000   0.0000   0.0000   0.0000

          k = 0.1111-0.1283-0.0596 ( 15043 PWs)   bands (ev):

   -10.3601 -10.3586 -10.2861 -10.2846 -10.2436 -10.2422 -10.2380 -10.2367
   -10.1941 -10.1927 -10.1868 -10.1854 -10.1851 -10.1838 -10.0756 -10.0743
   -10.0490 -10.0477  -9.9891  -9.9878  -8.9713  -8.9501  -8.7931  -8.7698
    -1.9172  -1.8635   0.4907   0.6188   2.0728   2.1423   2.3163   2.4790
     2.9975   3.0106   3.1669   3.1814   3.8737   4.1902   6.7237   6.9184
     7.5556   7.5842   8.1273   8.2265   9.0543   9.0662

     occupation numbers 
     1.0000   1.0000   1.0000   1.0000   1.0000   1.0000   1.0000   1.0000
     1.0000   1.0000   1.0000   1.0000   1.0000   1.0000   1.0000   1.0000
     1.0000   1.0000   1.0000   1.0000   1.0000   1.0000   1.0000   1.0000
     1.0000   1.0000   1.0000   1.0000   1.0000   1.0000   1.0000   1.0000
     1.0000   1.0000   1.0000   1.0000   1.0768   0.7942   0.0000   0.0000
     0.0000   0.0000   0.0000   0.0000   0.0000   0.0000

          k = 0.1111-0.1283-0.0834 ( 15047 PWs)   bands (ev):

   -10.3601 -10.3586 -10.2861 -10.2846 -10.2436 -10.2422 -10.2380 -10.2367
   -10.1941 -10.1927 -10.1868 -10.1854 -10.1851 -10.1838 -10.0756 -10.0743
   -10.0490 -10.0477  -9.9891  -9.9878  -8.9668  -8.9556  -8.7871  -8.7748
    -1.9050  -1.8764   0.5207   0.5888   2.0857   2.1211   2.3556   2.4400
     3.0004   3.0074   3.1705   3.1781   3.9504   4.1181   6.7689   6.8719
     7.5650   7.5799   8.1493   8.2020   9.0568   9.0633

     occupation numbers 
     1.0000   1.0000   1.0000   1.0000   1.0000   1.0000   1.0000   1.0000
     1.0000   1.0000   1.0000   1.0000   1.0000   1.0000   1.0000   1.0000
     1.0000   1.0000   1.0000   1.0000   1.0000   1.0000   1.0000   1.0000
     1.0000   1.0000   1.0000   1.0000   1.0000   1.0000   1.0000   1.0000
     1.0000   1.0000   1.0000   1.0000   1.0818   0.9378   0.0000   0.0000
     0.0000   0.0000   0.0000   0.0000   0.0000   0.0000

          k = 0.1111-0.1283 0.1073 ( 15052 PWs)   bands (ev):

   -10.3601 -10.3586 -10.2860 -10.2846 -10.2436 -10.2422 -10.2380 -10.2367
   -10.1941 -10.1927 -10.1868 -10.1854 -10.1851 -10.1838 -10.0756 -10.0743
   -10.0490 -10.0477  -9.9891  -9.9878  -8.9616  -8.9611  -8.7810  -8.7805
    -1.8917  -1.8900   0.5545   0.5549   2.1019   2.1021   2.3970   2.3984
     3.0036   3.0041   3.1742   3.1745   4.0344   4.0359   6.8196   6.8207
     7.5725   7.5744   8.1749   8.1755   9.0591   9.0609

     occupation numbers 
     1.0000   1.0000   1.0000   1.0000   1.0000   1.0000   1.0000   1.0000
     1.0000   1.0000   1.0000   1.0000   1.0000   1.0000   1.0000   1.0000
[...]

   -10.4273 -10.4260 -10.3579 -10.3568 -10.3243 -10.3227 -10.2504 -10.2490
   -10.1972 -10.1958 -10.1700 -10.1686 -10.1589 -10.1575 -10.0833 -10.0820
   -10.0635 -10.0621  -9.9353  -9.9340  -7.7642  -7.7589  -7.6852  -7.6798
    -2.5069  -2.5052  -1.5082  -1.5026   0.5306   0.5419   0.9630   0.9803
     1.7089   1.7785   2.5090   2.5772   2.6797   2.6858   6.7770   6.8171
     7.0576   7.1207   8.4715   8.6261   9.5617   9.6270

     occupation numbers 
     1.0000   1.0000   1.0000   1.0000   1.0000   1.0000   1.0000   1.0000
     1.0000   1.0000   1.0000   1.0000   1.0000   1.0000   1.0000   1.0000
     1.0000   1.0000   1.0000   1.0000   1.0000   1.0000   1.0000   1.0000
     1.0000   1.0000   1.0000   1.0000   1.0000   1.0000   1.0000   1.0000
     1.0000   1.0000   1.0000   1.0000   1.0000   1.0000   0.0000   0.0000
     0.0000   0.0000   0.0000   0.0000   0.0000   0.0000

          k =-0.7778 0.0000-0.0834 ( 14972 PWs)   bands (ev):

   -10.4273 -10.4260 -10.3579 -10.3568 -10.3243 -10.3227 -10.2504 -10.2490
   -10.1972 -10.1958 -10.1700 -10.1686 -10.1589 -10.1575 -10.0833 -10.0820
   -10.0635 -10.0621  -9.9353  -9.9340  -7.7630  -7.7602  -7.6839  -7.6810
    -2.5066  -2.5055  -1.5069  -1.5039   0.5333   0.5393   0.9669   0.9762
     1.7249   1.7621   2.5190   2.5547   2.6873   2.6921   6.7806   6.8029
     7.0733   7.1116   8.5103   8.5915   9.5647   9.6338

     occupation numbers 
     1.0000   1.0000   1.0000   1.0000   1.0000   1.0000   1.0000   1.0000
     1.0000   1.0000   1.0000   1.0000   1.0000   1.0000   1.0000   1.0000
     1.0000   1.0000   1.0000   1.0000   1.0000   1.0000   1.0000   1.0000
     1.0000   1.0000   1.0000   1.0000   1.0000   1.0000   1.0000   1.0000
     1.0000   1.0000   1.0000   1.0000   1.0000   1.0000   0.0000   0.0000
     0.0000   0.0000   0.0000   0.0000   0.0000   0.0000

          k =-0.7778 0.0000 0.1073 ( 14976 PWs)   bands (ev):

   -10.4273 -10.4260 -10.3579 -10.3568 -10.3243 -10.3227 -10.2504 -10.2490
   -10.1972 -10.1958 -10.1700 -10.1686 -10.1589 -10.1575 -10.0833 -10.0820
   -10.0635 -10.0621  -9.9353  -9.9340  -7.7620  -7.7613  -7.6828  -7.6821
    -2.5064  -2.5057  -1.5056  -1.5052   0.5363   0.5363   0.9706   0.9723
     1.7419   1.7449   2.5314   2.5379   2.6910   2.6934   6.7846   6.7948
     7.0840   7.1035   8.5466   8.5570   9.5665   9.6343

     occupation numbers 
     1.0000   1.0000   1.0000   1.0000   1.0000   1.0000   1.0000   1.0000
     1.0000   1.0000   1.0000   1.0000   1.0000   1.0000   1.0000   1.0000
     1.0000   1.0000   1.0000   1.0000   1.0000   1.0000   1.0000   1.0000
     1.0000   1.0000   1.0000   1.0000   1.0000   1.0000   1.0000   1.0000
     1.0000   1.0000   1.0000   1.0000   1.0000   1.0000   0.0000   0.0000
     0.0000   0.0000   0.0000   0.0000   0.0000   0.0000

          k = 0.1111-0.5132-0.0119 ( 14984 PWs)   bands (ev):

   -10.4250 -10.4236 -10.3523 -10.3510 -10.3243 -10.3228 -10.2444 -10.2429
   -10.2039 -10.2025 -10.1640 -10.1627 -10.1567 -10.1553 -10.0910 -10.0896
   -10.0568 -10.0554  -9.9379  -9.9366  -7.9094  -7.8946  -7.8173  -7.8019
    -2.5157  -2.5048  -1.5256  -1.5072   0.9229   0.9943   1.7346   1.7693
     1.7887   1.8094   2.3272   2.5323   2.8391   2.9173   6.5651   6.6838
     6.7061   6.8098   8.5341   8.5586   8.7559   8.9329

     occupation numbers 
     1.0000   1.0000   1.0000   1.0000   1.0000   1.0000   1.0000   1.0000
     1.0000   1.0000   1.0000   1.0000   1.0000   1.0000   1.0000   1.0000
     1.0000   1.0000   1.0000   1.0000   1.0000   1.0000   1.0000   1.0000
     1.0000   1.0000   1.0000   1.0000   1.0000   1.0000   1.0000   1.0000
     1.0000   1.0000   1.0000   1.0000   1.0000   1.0000   0.0000   0.0000
     0.0000   0.0000   0.0000   0.0000   0.0000   0.0000

          k = 0.1111-0.5132-0.0358 ( 14990 PWs)   bands (ev):

   -10.4250 -10.4236 -10.3523 -10.3510 -10.3243 -10.3228 -10.2444 -10.2429
   -10.2039 -10.2025 -10.1640 -10.1627 -10.1567 -10.1553 -10.0910 -10.0896
   -10.0568 -10.0554  -9.9379  -9.9366  -7.9087  -7.8957  -7.8162  -7.8027
    -2.5150  -2.5055  -1.5245  -1.5083   0.9272   0.9900   1.7336   1.7708
     1.7830   1.8121   2.3392   2.5188   2.8456   2.9149   6.5549   6.6689
     6.7188   6.8237   8.5268   8.5573   8.7627   8.9107

     occupation numbers 
     1.0000   1.0000   1.0000   1.0000   1.0000   1.0000   1.0000   1.0000
     1.0000   1.0000   1.0000   1.0000   1.0000   1.0000   1.0000   1.0000
     1.0000   1.0000   1.0000   1.0000   1.0000   1.0000   1.0000   1.0000
     1.0000   1.0000   1.0000   1.0000   1.0000   1.0000   1.0000   1.0000
     1.0000   1.0000   1.0000   1.0000   1.0000   1.0000   0.0000   0.0000
     0.0000   0.0000   0.0000   0.0000   0.0000   0.0000

          k = 0.1111-0.5132-0.0596 ( 14986 PWs)   bands (ev):

   -10.4250 -10.4236 -10.3523 -10.3510 -10.3243 -10.3228 -10.2444 -10.2429
   -10.2039 -10.2025 -10.1640 -10.1627 -10.1567 -10.1553 -10.0910 -10.0896
   -10.0568 -10.0554  -9.9379  -9.9366  -7.9072  -7.8976  -7.8142  -7.8042
    -2.5138  -2.5067  -1.5224  -1.5104   0.9353   0.9821   1.7334   1.7636
     1.7860   1.8128   2.3615   2.4946   2.8566   2.9099   6.5478   6.6328
     6.7539   6.8341   8.5159   8.5558   8.7701   8.8936

     occupation numbers 
     1.0000   1.0000   1.0000   1.0000   1.0000   1.0000   1.0000   1.0000
     1.0000   1.0000   1.0000   1.0000   1.0000   1.0000   1.0000   1.0000
     1.0000   1.0000   1.0000   1.0000   1.0000   1.0000   1.0000   1.0000
     1.0000   1.0000   1.0000   1.0000   1.0000   1.0000   1.0000   1.0000
     1.0000   1.0000   1.0000   1.0000   1.0000   1.0000   0.0000   0.0000
     0.0000   0.0000   0.0000   0.0000   0.0000   0.0000

          k = 0.1111-0.5132-0.0834 ( 14981 PWs)   bands (ev):

   -10.4249 -10.4237 -10.3522 -10.3511 -10.3243 -10.3228 -10.2444 -10.2429
   -10.2039 -10.2025 -10.1640 -10.1627 -10.1567 -10.1553 -10.0910 -10.0896
   -10.0568 -10.0554  -9.9379  -9.9366  -7.9051  -7.9000  -7.8117  -7.8064
    -2.5122  -2.5084  -1.5196  -1.5132   0.9462   0.9713   1.7355   1.7534
     1.7933   1.8105   2.3908   2.4637   2.8687   2.9028   6.5508   6.5981
     6.7892   6.8325   8.5070   8.5546   8.7738   8.8862

     occupation numbers 
     1.0000   1.0000   1.0000   1.0000   1.0000   1.0000   1.0000   1.0000
     1.0000   1.0000   1.0000   1.0000   1.0000   1.0000   1.0000   1.0000
     1.0000   1.0000   1.0000   1.0000   1.0000   1.0000   1.0000   1.0000
     1.0000   1.0000   1.0000   1.0000   1.0000   1.0000   1.0000   1.0000
     1.0000   1.0000   1.0000   1.0000   1.0000   1.0000   0.0000   0.0000
     0.0000   0.0000   0.0000   0.0000   0.0000   0.0000

          k = 0.1111-0.5132 0.1073 ( 14974 PWs)   bands (ev):

   -10.4249 -10.4237 -10.3522 -10.3511 -10.3243 -10.3228 -10.2444 -10.2429
   -10.2039 -10.2025 -10.1640 -10.1627 -10.1567 -10.1553 -10.0910 -10.0896
   -10.0568 -10.0554  -9.9379  -9.9366  -7.9029  -7.9023  -7.8093  -7.8087
    -2.5107  -2.5099  -1.5166  -1.5163   0.9567   0.9608   1.7381   1.7477
     1.7976   1.8081   2.4157   2.4382   2.8755   2.8979   6.5603   6.5773
     6.8146   6.8193   8.5036   8.5541   8.7746   8.8847

     occupation numbers 
     1.0000   1.0000   1.0000   1.0000   1.0000   1.0000   1.0000   1.0000
     1.0000   1.0000   1.0000   1.0000   1.0000   1.0000   1.0000   1.0000
     1.0000   1.0000   1.0000   1.0000   1.0000   1.0000   1.0000   1.0000
     1.0000   1.0000   1.0000   1.0000   1.0000   1.0000   1.0000   1.0000
     1.0000   1.0000   1.0000   1.0000   1.0000   1.0000   0.0000   0.0000
     0.0000   0.0000   0.0000   0.0000   0.0000   0.0000

          k = 0.0000-0.4491-0.0119 ( 14963 PWs)   bands (ev):

   -10.4162 -10.4148 -10.3413 -10.3398 -10.3244 -10.3229 -10.2410 -10.2396
   -10.2056 -10.2042 -10.1644 -10.1630 -10.1580 -10.1567 -10.0931 -10.0917
   -10.0537 -10.0523  -9.9426  -9.9413  -8.0942  -8.0734  -7.9849  -7.9631
    -2.3612  -2.3447  -1.2920  -1.2643   0.7795   0.9428   2.0322   2.2037
     2.2359   2.3351   2.4331   2.4703   3.0886   3.1834   6.2444   6.2999
     6.4270   6.4952   8.5551   8.5725   8.6965   8.7553

     occupation numbers 
     1.0000   1.0000   1.0000   1.0000   1.0000   1.0000   1.0000   1.0000
     1.0000   1.0000   1.0000   1.0000   1.0000   1.0000   1.0000   1.0000
     1.0000   1.0000   1.0000   1.0000   1.0000   1.0000   1.0000   1.0000
     1.0000   1.0000   1.0000   1.0000   1.0000   1.0000   1.0000   1.0000
     1.0000   1.0000   1.0000   1.0000   1.0000   1.0000   0.0000   0.0000
     0.0000   0.0000   0.0000   0.0000   0.0000   0.0000

          k = 0.0000-0.4491-0.0358 ( 14971 PWs)   bands (ev):

   -10.4162 -10.4148 -10.3413 -10.3399 -10.3244 -10.3229 -10.2410 -10.2396
   -10.2056 -10.2042 -10.1644 -10.1630 -10.1580 -10.1567 -10.0931 -10.0917
   -10.0537 -10.0523  -9.9426  -9.9413  -8.0931  -8.0750  -7.9833  -7.9642
    -2.3603  -2.3457  -1.2903  -1.2659   0.7879   0.9310   2.0512   2.2054
     2.2336   2.3167   2.4357   2.4683   3.0955   3.1789   6.2335   6.3213
     6.4075   6.5057   8.5458   8.5657   8.7082   8.7599

     occupation numbers 
     1.0000   1.0000   1.0000   1.0000   1.0000   1.0000   1.0000   1.0000
     1.0000   1.0000   1.0000   1.0000   1.0000   1.0000   1.0000   1.0000
     1.0000   1.0000   1.0000   1.0000   1.0000   1.0000   1.0000   1.0000
     1.0000   1.0000   1.0000   1.0000   1.0000   1.0000   1.0000   1.0000
     1.0000   1.0000   1.0000   1.0000   1.0000   1.0000   0.0000   0.0000
     0.0000   0.0000   0.0000   0.0000   0.0000   0.0000

          k = 0.0000-0.4491-0.0596 ( 14976 PWs)   bands (ev):

   -10.4162 -10.4148 -10.3412 -10.3399 -10.3244 -10.3229 -10.2410 -10.2396
   -10.2056 -10.2042 -10.1644 -10.1630 -10.1580 -10.1567 -10.0931 -10.0917
   -10.0537 -10.0523  -9.9426  -9.9413  -8.0911  -8.0777  -7.9805  -7.9664
    -2.3584  -2.3476  -1.2871  -1.2691   0.8041   0.9098   2.0863   2.2087
     2.2295   2.2826   2.4404   2.4645   3.1079   3.1702   6.2295   6.3264
     6.4030   6.5114   8.5341   8.5550   8.7262   8.7648

     occupation numbers 
     1.0000   1.0000   1.0000   1.0000   1.0000   1.0000   1.0000   1.0000
     1.0000   1.0000   1.0000   1.0000   1.0000   1.0000   1.0000   1.0000
     1.0000   1.0000   1.0000   1.0000   1.0000   1.0000   1.0000   1.0000
     1.0000   1.0000   1.0000   1.0000   1.0000   1.0000   1.0000   1.0000
     1.0000   1.0000   1.0000   1.0000   1.0000   1.0000   0.0000   0.0000
     0.0000   0.0000   0.0000   0.0000   0.0000   0.0000

          k = 0.0000-0.4491-0.0834 ( 14979 PWs)   bands (ev):

   -10.4162 -10.4149 -10.3412 -10.3400 -10.3244 -10.3229 -10.2410 -10.2396
   -10.2056 -10.2042 -10.1644 -10.1630 -10.1580 -10.1567 -10.0931 -10.0917
   -10.0537 -10.0523  -9.9426  -9.9413  -8.0883  -8.0812  -7.9768  -7.9694
    -2.3559  -2.3501  -1.2829  -1.2733   0.8267   0.8829   2.1326   2.2132
     2.2242   2.2371   2.4464   2.4592   3.1232   3.1581   6.2352   6.3057
     6.4226   6.5089   8.5255   8.5456   8.7439   8.7653

     occupation numbers 
     1.0000   1.0000   1.0000   1.0000   1.0000   1.0000   1.0000   1.0000
     1.0000   1.0000   1.0000   1.0000   1.0000   1.0000   1.0000   1.0000
     1.0000   1.0000   1.0000   1.0000   1.0000   1.0000   1.0000   1.0000
     1.0000   1.0000   1.0000   1.0000   1.0000   1.0000   1.0000   1.0000
     1.0000   1.0000   1.0000   1.0000   1.0000   1.0000   0.0000   0.0000
     0.0000   0.0000   0.0000   0.0000   0.0000   0.0000

          k = 0.0000-0.4491 0.1073 ( 14984 PWs)   bands (ev):

   -10.4161 -10.4149 -10.3412 -10.3400 -10.3244 -10.3229 -10.2410 -10.2396
   -10.2056 -10.2042 -10.1644 -10.1630 -10.1580 -10.1567 -10.0931 -10.0917
   -10.0537 -10.0523  -9.9426  -9.9413  -8.0851  -8.0845  -7.9733  -7.9727
    -2.3535  -2.3526  -1.2782  -1.2779   0.8520   0.8559   2.1790   2.1910
     2.2184   2.2187   2.4528   2.4532   3.1346   3.1479   6.2417   6.2920
     6.4343   6.5052   8.5224   8.5420   8.7547   8.7615

     occupation numbers 
     1.0000   1.0000   1.0000   1.0000   1.0000   1.0000   1.0000   1.0000
     1.0000   1.0000   1.0000   1.0000   1.0000   1.0000   1.0000   1.0000
     1.0000   1.0000   1.0000   1.0000   1.0000   1.0000   1.0000   1.0000
     1.0000   1.0000   1.0000   1.0000   1.0000   1.0000   1.0000   1.0000
     1.0000   1.0000   1.0000   1.0000   1.0000   1.0000   0.0000   0.0000
     0.0000   0.0000   0.0000   0.0000   0.0000   0.0000

          k = 1.0000 0.0000-0.0119 ( 14960 PWs)   bands (ev):

   -10.4285 -10.4271 -10.3544 -10.3530 -10.3241 -10.3225 -10.2412 -10.2397
   -10.2075 -10.2061 -10.1599 -10.1586 -10.1533 -10.1520 -10.0948 -10.0935
   -10.0546 -10.0532  -9.9373  -9.9359  -7.9017  -7.8883  -7.8110  -7.7971
    -2.6152  -2.6069  -1.6637  -1.6461   1.0085   1.0796   2.0870   2.1196
     2.2485   2.3247   2.3626   2.3954   2.7005   2.7907   6.0720   6.2274
     6.2604   6.4013   8.3082   8.4440   8.4890   8.5285

     occupation numbers 
     1.0000   1.0000   1.0000   1.0000   1.0000   1.0000   1.0000   1.0000
     1.0000   1.0000   1.0000   1.0000   1.0000   1.0000   1.0000   1.0000
     1.0000   1.0000   1.0000   1.0000   1.0000   1.0000   1.0000   1.0000
     1.0000   1.0000   1.0000   1.0000   1.0000   1.0000   1.0000   1.0000
     1.0000   1.0000   1.0000   1.0000   1.0000   1.0000   0.0000   0.0000
     0.0000   0.0000   0.0000   0.0000   0.0000   0.0000

          k = 1.0000 0.0000-0.0358 ( 14966 PWs)   bands (ev):

   -10.4285 -10.4271 -10.3543 -10.3531 -10.3241 -10.3225 -10.2412 -10.2397
   -10.2075 -10.2061 -10.1599 -10.1586 -10.1533 -10.1520 -10.0948 -10.0935
   -10.0546 -10.0532  -9.9373  -9.9359  -7.9010  -7.8893  -7.8100  -7.7978
    -2.6147  -2.6074  -1.6626  -1.6471   1.0127   1.0753   2.0887   2.1173
     2.2540   2.3273   2.3605   2.3832   2.7092   2.7895   6.0663   6.2001
     6.2840   6.4109   8.3057   8.4142   8.5001   8.5509

     occupation numbers 
     1.0000   1.0000   1.0000   1.0000   1.0000   1.0000   1.0000   1.0000
     1.0000   1.0000   1.0000   1.0000   1.0000   1.0000   1.0000   1.0000
     1.0000   1.0000   1.0000   1.0000   1.0000   1.0000   1.0000   1.0000
     1.0000   1.0000   1.0000   1.0000   1.0000   1.0000   1.0000   1.0000
     1.0000   1.0000   1.0000   1.0000   1.0000   1.0000   0.0000   0.0000
     0.0000   0.0000   0.0000   0.0000   0.0000   0.0000

          k = 1.0000 0.0000-0.0596 ( 14966 PWs)   bands (ev):

   -10.4285 -10.4272 -10.3543 -10.3531 -10.3241 -10.3225 -10.2412 -10.2397
   -10.2075 -10.2061 -10.1599 -10.1586 -10.1533 -10.1520 -10.0948 -10.0935
   -10.0546 -10.0532  -9.9373  -9.9359  -7.8997  -7.8910  -7.8082  -7.7992
    -2.6138  -2.6084  -1.6607  -1.6491   1.0207   1.0674   2.0920   2.1132
     2.2650   2.3320   2.3566   2.3625   2.7232   2.7866   6.0627   6.1635
     6.3155   6.4199   8.3047   8.3790   8.5172   8.5721

     occupation numbers 
     1.0000   1.0000   1.0000   1.0000   1.0000   1.0000   1.0000   1.0000
     1.0000   1.0000   1.0000   1.0000   1.0000   1.0000   1.0000   1.0000
     1.0000   1.0000   1.0000   1.0000   1.0000   1.0000   1.0000   1.0000
     1.0000   1.0000   1.0000   1.0000   1.0000   1.0000   1.0000   1.0000
     1.0000   1.0000   1.0000   1.0000   1.0000   1.0000   0.0000   0.0000
     0.0000   0.0000   0.0000   0.0000   0.0000   0.0000

          k = 1.0000 0.0000-0.0834 ( 15010 PWs)   bands (ev):

   -10.4285 -10.4272 -10.3543 -10.3531 -10.3241 -10.3225 -10.2412 -10.2397
   -10.2075 -10.2061 -10.1599 -10.1586 -10.1533 -10.1520 -10.0948 -10.0935
   -10.0546 -10.0532  -9.9373  -9.9359  -7.8978  -7.8932  -7.8060  -7.8012
    -2.6126  -2.6096  -1.6580  -1.6518   1.0313   1.0567   2.0966   2.1078
     2.2801   2.3382   2.3393   2.3512   2.7372   2.7819   6.0668   6.1291
     6.3437   6.4223   8.3096   8.3479   8.5323   8.5851

     occupation numbers 
     1.0000   1.0000   1.0000   1.0000   1.0000   1.0000   1.0000   1.0000
     1.0000   1.0000   1.0000   1.0000   1.0000   1.0000   1.0000   1.0000
     1.0000   1.0000   1.0000   1.0000   1.0000   1.0000   1.0000   1.0000
     1.0000   1.0000   1.0000   1.0000   1.0000   1.0000   1.0000   1.0000
     1.0000   1.0000   1.0000   1.0000   1.0000   1.0000   0.0000   0.0000
     0.0000   0.0000   0.0000   0.0000   0.0000   0.0000

          k = 1.0000 0.0000 0.1073 ( 15004 PWs)   bands (ev):

   -10.4285 -10.4272 -10.3543 -10.3531 -10.3241 -10.3225 -10.2412 -10.2397
   -10.2075 -10.2061 -10.1599 -10.1586 -10.1533 -10.1520 -10.0948 -10.0935
   -10.0546 -10.0532  -9.9373  -9.9359  -7.8958  -7.8952  -7.8038  -7.8032
    -2.6115  -2.6107  -1.6551  -1.6548   1.0409   1.0471   2.1019   2.1022
     2.2908   2.3255   2.3447   2.3450   2.7438   2.7788   6.0732   6.1116
     6.3560   6.4213   8.3195   8.3286   8.5383   8.5892

     occupation numbers 
     1.0000   1.0000   1.0000   1.0000   1.0000   1.0000   1.0000   1.0000
     1.0000   1.0000   1.0000   1.0000   1.0000   1.0000   1.0000   1.0000
     1.0000   1.0000   1.0000   1.0000   1.0000   1.0000   1.0000   1.0000
     1.0000   1.0000   1.0000   1.0000   1.0000   1.0000   1.0000   1.0000
     1.0000   1.0000   1.0000   1.0000   1.0000   1.0000   0.0000   0.0000
     0.0000   0.0000   0.0000   0.0000   0.0000   0.0000

     the Fermi energy is     4.3520 ev

     Writing output data file aiida.save/

     init_run     :      6.47s CPU      7.30s WALL (       1 calls)
     electrons    :  10140.54s CPU  10172.66s WALL (       1 calls)

     Called by init_run:
     wfcinit      :      0.00s CPU      0.00s WALL (       1 calls)
     wfcinit:atom :      1.01s CPU      1.01s WALL (     125 calls)
     wfcinit:wfcr :    185.13s CPU    185.32s WALL (     125 calls)
     potinit      :      1.33s CPU      1.36s WALL (       1 calls)
     hinit0       :      2.17s CPU      2.19s WALL (       1 calls)

     Called by electrons:
     c_bands      :  10140.52s CPU  10172.63s WALL (       1 calls)
     v_of_rho     :      0.55s CPU      0.58s WALL (       1 calls)
     v_h          :      0.03s CPU      0.04s WALL (       1 calls)
     v_xc         :      0.52s CPU      0.54s WALL (       1 calls)
     newd         :      2.85s CPU      3.59s WALL (       1 calls)
     PAW_pot      :      0.71s CPU      0.71s WALL (       1 calls)

     Called by c_bands:
     init_us_2    :      1.59s CPU      1.71s WALL (     125 calls)
     cegterg      :   9933.80s CPU   9962.46s WALL (     566 calls)

     Called by sum_band:

     Called by *egterg:
     h_psi        :   4962.47s CPU   4974.40s WALL (   10729 calls)
     s_psi        :   1054.56s CPU   1056.22s WALL (   10729 calls)
     g_psi        :     22.73s CPU     22.80s WALL (   10038 calls)
     cdiaghg      :    110.89s CPU    111.01s WALL (   10163 calls)
     cegterg:over :   1676.68s CPU   1677.76s WALL (   10038 calls)
     cegterg:upda :   1139.99s CPU   1144.67s WALL (   10038 calls)
     cegterg:last :   1017.31s CPU   1017.87s WALL (    1821 calls)

     Called by h_psi:
     h_psi:pot    :   4950.88s CPU   4958.24s WALL (   10729 calls)
     h_psi:calbec :   1078.54s CPU   1079.18s WALL (   10729 calls)
     vloc_psi     :   2818.42s CPU   2824.52s WALL (   10729 calls)
     add_vuspsi   :   1053.81s CPU   1054.48s WALL (   10729 calls)

     General routines
     calbec       :   1078.48s CPU   1079.15s WALL (   10729 calls)
     fft          :      0.31s CPU      0.31s WALL (      13 calls)
     ffts         :      0.01s CPU      0.01s WALL (       1 calls)
     fftw         :   2521.84s CPU   2527.38s WALL (  503318 calls)
     interpolate  :      0.03s CPU      0.03s WALL (       1 calls)
     davcio       :      0.21s CPU      1.63s WALL (     250 calls)

     Parallel routines

     PAW routines
     PAW_pot      :      0.71s CPU      0.71s WALL (       1 calls)

     PWSCF        :      2h49m CPU      2h49m WALL


   This run was terminated on:   2:58:34  29Apr2021            

=------------------------------------------------------------------------------=
   JOB DONE.
=------------------------------------------------------------------------------=
