
     Program PWSCF v.6.4.1 starts on 25Apr2021 at 16:29:35 

     This program is part of the open-source Quantum ESPRESSO suite
     for quantum simulation of materials; please cite
         "P. Giannozzi et al., J. Phys.:Condens. Matter 21 395502 (2009);
         "P. Giannozzi et al., J. Phys.:Condens. Matter 29 465901 (2017);
          URL http://www.quantum-espresso.org", 
     in publications or presentations arising from this work. More details at
     http://www.quantum-espresso.org/quote

     Parallel version (MPI), running on     1 processors

     MPI processes distributed on     1 nodes
     Waiting for input...
     Reading input from standard input

     Current dimensions of program PWSCF are:
     Max number of different atomic species (ntypx) = 10
     Max number of k-points (npk) =  40000
     Max angular momentum in pseudopotentials (lmaxx) =  3
               file Ga.pbe-dn-kjpaw_psl.1.0.0.UPF: wavefunction(s)  4S renormalized

     Subspace diagonalization in iterative solution of the eigenvalue problem:
     a serial algorithm will be used

     Message from routine setup:
     DEPRECATED: symmetry with ibrav=0, use correct ibrav instead

     G-vector sticks info
     --------------------
     sticks:   dense  smooth     PW     G-vecs:    dense   smooth      PW
     Sum        2017    1015    283               339673   120041   18017



     bravais-lattice index     =            0
     lattice parameter (alat)  =       7.2170  a.u.
     unit-cell volume          =    1517.4191 (a.u.)^3
     number of atoms/cell      =            8
     number of atomic types    =            2
     number of electrons       =        76.00
     number of Kohn-Sham states=           46
     kinetic-energy cutoff     =      70.0000  Ry
     charge density cutoff     =     560.0000  Ry
     convergence threshold     =      1.6E-09
     mixing beta               =       0.4000
     number of iterations used =            8  plain     mixing
     Exchange-correlation      = SLA  PW   PBE  PBE ( 1  4  3  4 0 0)

     celldm(1)=   7.216990  celldm(2)=   0.000000  celldm(3)=   0.000000
     celldm(4)=   0.000000  celldm(5)=   0.000000  celldm(6)=   0.000000

     crystal axes: (cart. coord. in units of alat)
               a(1) = (  -0.500000  -0.866025  -0.000000 )  
               a(2) = (  -0.500000   0.866025   0.000000 )  
               a(3) = (   0.000000   0.000000  -4.661295 )  

     reciprocal axes: (cart. coord. in units 2 pi/alat)
               b(1) = ( -1.000000 -0.577350 -0.000000 )  
               b(2) = ( -1.000000  0.577350  0.000000 )  
               b(3) = (  0.000000  0.000000 -0.214533 )  


     PseudoPot. # 1 for Ga read from file:
     ./pseudo/Ga.pbe-dn-kjpaw_psl.1.0.0.UPF
     MD5 check sum: a27b4342b1af7e5f338de752e9ed7044
     Pseudo is Projector augmented-wave + core cor, Zval = 13.0
     Generated using "atomic" code by A. Dal Corso v.5.1
     Shape of augmentation charge: PSQ
     Using radial grid of 1205 points,  6 beta functions with: 
                l(1) =   0
                l(2) =   0
                l(3) =   1
                l(4) =   1
                l(5) =   2
                l(6) =   2
     Q(r) pseudized with 0 coefficients 


     PseudoPot. # 2 for Se read from file:
     ./pseudo/Se_pbe_v1.uspp.F.UPF
     MD5 check sum: 1b3568f3a8ae88f9a2a0ad0698632c85
     Pseudo is Ultrasoft + core correction, Zval =  6.0
     Generated by new atomic code, or converted to UPF format
     Using radial grid of  877 points,  6 beta functions with: 
                l(1) =   0
                l(2) =   0
                l(3) =   1
                l(4) =   1
                l(5) =   2
                l(6) =   2
     Q(r) pseudized with  8 coefficients,  rinner =    1.300   1.300   1.300
                                                       1.300   1.300

     atomic species   valence    mass     pseudopotential
        Ga            13.00    69.72300     Ga( 1.00)
        Se             6.00    78.96000     Se( 1.00)

     12 Sym. Ops. (no inversion) found


                                    s                        frac. trans.

      isym =  1     identity                                     

 cryst.   s( 1) = (     1          0          0      )
                  (     0          1          0      )
                  (     0          0          1      )

 cart.    s( 1) = (  1.0000000  0.0000000  0.0000000 )
                  (  0.0000000  1.0000000  0.0000000 )
                  (  0.0000000  0.0000000  1.0000000 )


      isym =  2     180 deg rotation - cart. axis [0,1,0]        

 cryst.   s( 2) = (     0         -1          0      )
                  (    -1          0          0      )
                  (     0          0         -1      )

 cart.    s( 2) = ( -1.0000000  0.0000000  0.0000000 )
                  (  0.0000000  1.0000000  0.0000000 )
                  (  0.0000000  0.0000000 -1.0000000 )


      isym =  3     120 deg rotation - cryst. axis [0,0,1]       

 cryst.   s( 3) = (    -1         -1          0      )
                  (     1          0          0      )
                  (     0          0          1      )

 cart.    s( 3) = ( -0.5000000 -0.8660254  0.0000000 )
                  (  0.8660254 -0.5000000  0.0000000 )
                  (  0.0000000  0.0000000  1.0000000 )


      isym =  4     120 deg rotation - cryst. axis [0,0,-1]      

 cryst.   s( 4) = (     0          1          0      )
                  (    -1         -1          0      )
                  (     0          0          1      )

 cart.    s( 4) = ( -0.5000000  0.8660254  0.0000000 )
                  ( -0.8660254 -0.5000000  0.0000000 )
                  (  0.0000000  0.0000000  1.0000000 )


      isym =  5     180 deg rotation - cryst. axis [1,-1,0]      

 cryst.   s( 5) = (    -1          0          0      )
                  (     1          1          0      )
                  (     0          0         -1      )

 cart.    s( 5) = (  0.5000000 -0.8660254  0.0000000 )
                  ( -0.8660254 -0.5000000  0.0000000 )
                  (  0.0000000  0.0000000 -1.0000000 )


      isym =  6     180 deg rotation - cryst. axis [2,1,0]       

 cryst.   s( 6) = (     1          1          0      )
                  (     0         -1          0      )
                  (     0          0         -1      )

 cart.    s( 6) = (  0.5000000  0.8660254  0.0000000 )
                  (  0.8660254 -0.5000000  0.0000000 )
                  (  0.0000000  0.0000000 -1.0000000 )


      isym =  7     inv. 180 deg rotation - cart. axis [0,0,1]   

 cryst.   s( 7) = (     1          0          0      )
                  (     0          1          0      )
                  (     0          0         -1      )

 cart.    s( 7) = (  1.0000000  0.0000000  0.0000000 )
                  (  0.0000000  1.0000000  0.0000000 )
                  (  0.0000000  0.0000000 -1.0000000 )


      isym =  8     inv. 180 deg rotation - cart. axis [1,0,0]   

 cryst.   s( 8) = (     0         -1          0      )
                  (    -1          0          0      )
                  (     0          0          1      )

 cart.    s( 8) = ( -1.0000000  0.0000000  0.0000000 )
                  (  0.0000000  1.0000000  0.0000000 )
                  (  0.0000000  0.0000000  1.0000000 )


      isym =  9     inv.  60 deg rotation - cryst. axis [0,0,1]  

 cryst.   s( 9) = (     0          1          0      )
                  (    -1         -1          0      )
                  (     0          0         -1      )

 cart.    s( 9) = ( -0.5000000  0.8660254  0.0000000 )
                  ( -0.8660254 -0.5000000  0.0000000 )
                  (  0.0000000  0.0000000 -1.0000000 )


      isym = 10     inv.  60 deg rotation - cryst. axis [0,0,-1] 

 cryst.   s(10) = (    -1         -1          0      )
                  (     1          0          0      )
                  (     0          0         -1      )

 cart.    s(10) = ( -0.5000000 -0.8660254  0.0000000 )
                  (  0.8660254 -0.5000000  0.0000000 )
                  (  0.0000000  0.0000000 -1.0000000 )


      isym = 11     inv. 180 deg rotation - cryst. axis [0,1,0]  

 cryst.   s(11) = (     1          1          0      )
                  (     0         -1          0      )
                  (     0          0          1      )

 cart.    s(11) = (  0.5000000  0.8660254  0.0000000 )
                  (  0.8660254 -0.5000000  0.0000000 )
                  (  0.0000000  0.0000000  1.0000000 )


      isym = 12     inv. 180 deg rotation - cryst. axis [1,1,0]  

 cryst.   s(12) = (    -1          0          0      )
                  (     1          1          0      )
                  (     0          0          1      )

 cart.    s(12) = (  0.5000000 -0.8660254  0.0000000 )
                  ( -0.8660254 -0.5000000  0.0000000 )
                  (  0.0000000  0.0000000  1.0000000 )


   Cartesian axes

     site n.     atom                  positions (alat units)
         1           Ga  tau(   1) = (   0.0000000   0.0000000  -4.3377730  )
         2           Ga  tau(   2) = (   0.0000000   0.0000000  -0.3235218  )
         3           Ga  tau(   3) = (  -0.5000000   0.2886751  -2.6541413  )
         4           Ga  tau(   4) = (  -0.5000000   0.2886751  -2.0071536  )
         5           Se  tau(   5) = (  -0.5000000   0.2886751  -0.6306685  )
         6           Se  tau(   6) = (  -0.5000000   0.2886751  -4.0306263  )
         7           Se  tau(   7) = (  -0.5000000  -0.2886751  -1.6999416  )
         8           Se  tau(   8) = (  -0.5000000  -0.2886751  -2.9613532  )

   Crystallographic axes

     site n.     atom                  positions (cryst. coord.)
         1           Ga  tau(   1) = (  0.0000000  0.0000000  0.9305940  )
         2           Ga  tau(   2) = (  0.0000000  0.0000000  0.0694060  )
         3           Ga  tau(   3) = (  0.3333333  0.6666667  0.5694000  )
         4           Ga  tau(   4) = (  0.3333333  0.6666667  0.4306000  )
         5           Se  tau(   5) = (  0.3333333  0.6666667  0.1352990  )
         6           Se  tau(   6) = (  0.3333333  0.6666667  0.8647010  )
         7           Se  tau(   7) = (  0.6666667  0.3333333  0.3646930  )
         8           Se  tau(   8) = (  0.6666667  0.3333333  0.6353070  )

     number of k points=    16  Marzari-Vanderbilt smearing, width (Ry)=  0.0220
                       cart. coord. in units 2pi/alat
        k(    1) = (   0.0000000   0.0000000   0.0000000), wk =   0.0204082
        k(    2) = (  -0.0000000   0.0000000   0.1072663), wk =   0.0204082
        k(    3) = (  -0.1428571   0.0824786   0.0000000), wk =   0.1224490
        k(    4) = (  -0.1428571   0.0824786   0.1072663), wk =   0.1224490
        k(    5) = (  -0.2857143   0.1649572   0.0000000), wk =   0.1224490
        k(    6) = (  -0.2857143   0.1649572   0.1072663), wk =   0.1224490
        k(    7) = (  -0.4285714   0.2474358   0.0000000), wk =   0.1224490
        k(    8) = (  -0.4285714   0.2474358   0.1072663), wk =   0.1224490
        k(    9) = (  -0.2857143   0.0000000   0.0000000), wk =   0.1224490
        k(   10) = (  -0.2857143   0.0000000   0.1072663), wk =   0.1224490
        k(   11) = (  -0.4285714   0.0824786   0.0000000), wk =   0.2448980
        k(   12) = (  -0.4285714   0.0824786   0.1072663), wk =   0.2448980
        k(   13) = (  -0.5714286   0.1649572   0.0000000), wk =   0.1224490
        k(   14) = (  -0.5714286   0.1649572   0.1072663), wk =   0.1224490
        k(   15) = (  -0.5714286   0.0000000   0.0000000), wk =   0.1224490
        k(   16) = (  -0.5714286   0.0000000   0.1072663), wk =   0.1224490

                       cryst. coord.
        k(    1) = (  -0.0000000   0.0000000   0.0000000), wk =   0.0204082
        k(    2) = (   0.0000000   0.0000000  -0.5000000), wk =   0.0204082
        k(    3) = (   0.0000000   0.1428571   0.0000000), wk =   0.1224490
        k(    4) = (   0.0000000   0.1428571  -0.5000000), wk =   0.1224490
        k(    5) = (   0.0000000   0.2857143   0.0000000), wk =   0.1224490
        k(    6) = (   0.0000000   0.2857143  -0.5000000), wk =   0.1224490
        k(    7) = (   0.0000000   0.4285714   0.0000000), wk =   0.1224490
        k(    8) = (   0.0000000   0.4285714  -0.5000000), wk =   0.1224490
        k(    9) = (   0.1428571   0.1428571   0.0000000), wk =   0.1224490
        k(   10) = (   0.1428571   0.1428571  -0.5000000), wk =   0.1224490
        k(   11) = (   0.1428571   0.2857143   0.0000000), wk =   0.2448980
        k(   12) = (   0.1428571   0.2857143  -0.5000000), wk =   0.2448980
        k(   13) = (   0.1428571   0.4285714   0.0000000), wk =   0.1224490
        k(   14) = (   0.1428571   0.4285714  -0.5000000), wk =   0.1224490
        k(   15) = (   0.2857143   0.2857143   0.0000000), wk =   0.1224490
        k(   16) = (   0.2857143   0.2857143  -0.5000000), wk =   0.1224490

     Dense  grid:   339673 G-vectors     FFT dimensions: (  60,  60, 256)

     Smooth grid:   120041 G-vectors     FFT dimensions: (  40,  40, 180)

     Dynamical RAM for                 wfc:      10.53 MB

     Dynamical RAM for     wfc (w. buffer):     179.07 MB

     Dynamical RAM for           str. fact:      10.37 MB

     Dynamical RAM for           local pot:       0.00 MB

     Dynamical RAM for          nlocal pot:      32.97 MB

     Dynamical RAM for                qrad:       4.36 MB

     Dynamical RAM for          rho,v,vnew:      36.64 MB

     Dynamical RAM for               rhoin:      12.21 MB

     Dynamical RAM for            rho*nmix:      82.93 MB

     Dynamical RAM for           G-vectors:      20.35 MB

     Dynamical RAM for          h,s,v(r/c):       1.55 MB

     Dynamical RAM for          <psi|beta>:       0.10 MB

     Dynamical RAM for                 psi:      42.13 MB

     Dynamical RAM for                hpsi:      42.13 MB

     Dynamical RAM for                spsi:      42.13 MB

     Dynamical RAM for      wfcinit/wfcrot:      23.88 MB

     Dynamical RAM for           addusdens:     984.77 MB

     Dynamical RAM for          addusforce:    1080.69 MB

     Dynamical RAM for         addusstress:    1041.78 MB

     Estimated static dynamical RAM per process >     429.61 MB

     Estimated max dynamical RAM per process >       1.47 GB

     Initial potential from superposition of free atoms

     starting charge   75.98791, renormalised to   76.00000
     Starting wfcs are   52 randomized atomic wfcs
     Checking if some PAW data can be deallocated... 

     total cpu time spent up to now is       37.0 secs

     Self-consistent Calculation

     iteration #  1     ecut=    70.00 Ry     beta= 0.40
     Davidson diagonalization with overlap
     ethr =  1.00E-02,  avg # of iterations =  2.8

     Threshold (ethr) on eigenvalues was too large:
     Diagonalizing with lowered threshold

     Davidson diagonalization with overlap
     ethr =  2.26E-04,  avg # of iterations =  6.1

     total cpu time spent up to now is      231.3 secs

     total energy              =   -1286.44429975 Ry
     Harris-Foulkes estimate   =   -1286.50046507 Ry
     estimated scf accuracy    <       0.16510652 Ry

     iteration #  2     ecut=    70.00 Ry     beta= 0.40
     Davidson diagonalization with overlap
     ethr =  2.17E-04,  avg # of iterations =  2.3

     total cpu time spent up to now is      307.7 secs

     total energy              =   -1286.45433255 Ry
     Harris-Foulkes estimate   =   -1286.46592688 Ry
     estimated scf accuracy    <       0.04356124 Ry

     iteration #  3     ecut=    70.00 Ry     beta= 0.40
     Davidson diagonalization with overlap
     ethr =  5.73E-05,  avg # of iterations =  4.6

     total cpu time spent up to now is      392.1 secs

     total energy              =   -1286.45923904 Ry
     Harris-Foulkes estimate   =   -1286.46358754 Ry
     estimated scf accuracy    <       0.01983087 Ry

     iteration #  4     ecut=    70.00 Ry     beta= 0.40
     Davidson diagonalization with overlap
     ethr =  2.61E-05,  avg # of iterations =  3.0

     total cpu time spent up to now is      464.8 secs

     total energy              =   -1286.46217609 Ry
     Harris-Foulkes estimate   =   -1286.46229286 Ry
     estimated scf accuracy    <       0.00275783 Ry

     iteration #  5     ecut=    70.00 Ry     beta= 0.40
     Davidson diagonalization with overlap
     ethr =  3.63E-06,  avg # of iterations =  5.6

     total cpu time spent up to now is      604.8 secs

     total energy              =   -1286.46528893 Ry
     Harris-Foulkes estimate   =   -1286.46435557 Ry
     estimated scf accuracy    <       0.00373550 Ry

     iteration #  6     ecut=    70.00 Ry     beta= 0.40
     Davidson diagonalization with overlap
     ethr =  3.63E-06,  avg # of iterations =  2.6

     total cpu time spent up to now is      668.7 secs

     total energy              =   -1286.46314425 Ry
     Harris-Foulkes estimate   =   -1286.46536889 Ry
     estimated scf accuracy    <       0.00721941 Ry

     iteration #  7     ecut=    70.00 Ry     beta= 0.40
     Davidson diagonalization with overlap
     ethr =  3.63E-06,  avg # of iterations =  4.9

     total cpu time spent up to now is      754.6 secs

     total energy              =   -1286.46365145 Ry
     Harris-Foulkes estimate   =   -1286.46373531 Ry
     estimated scf accuracy    <       0.00029759 Ry

     iteration #  8     ecut=    70.00 Ry     beta= 0.40
     Davidson diagonalization with overlap
     ethr =  3.92E-07,  avg # of iterations =  6.1

     total cpu time spent up to now is      856.4 secs

     total energy              =   -1286.46375907 Ry
     Harris-Foulkes estimate   =   -1286.46377475 Ry
     estimated scf accuracy    <       0.00002575 Ry

     iteration #  9     ecut=    70.00 Ry     beta= 0.40
     Davidson diagonalization with overlap
     ethr =  3.39E-08,  avg # of iterations =  4.8

     total cpu time spent up to now is      975.3 secs

     total energy              =   -1286.46376879 Ry
     Harris-Foulkes estimate   =   -1286.46377380 Ry
     estimated scf accuracy    <       0.00002556 Ry

     iteration # 10     ecut=    70.00 Ry     beta= 0.40
     Davidson diagonalization with overlap
     ethr =  3.36E-08,  avg # of iterations =  4.0

     total cpu time spent up to now is     1059.4 secs

     total energy              =   -1286.46377038 Ry
     Harris-Foulkes estimate   =   -1286.46377490 Ry
     estimated scf accuracy    <       0.00001309 Ry

     iteration # 11     ecut=    70.00 Ry     beta= 0.40
     Davidson diagonalization with overlap
     ethr =  1.72E-08,  avg # of iterations =  3.0

     total cpu time spent up to now is     1127.1 secs

     total energy              =   -1286.46377096 Ry
     Harris-Foulkes estimate   =   -1286.46377134 Ry
     estimated scf accuracy    <       0.00000106 Ry

     iteration # 12     ecut=    70.00 Ry     beta= 0.40
     Davidson diagonalization with overlap
     ethr =  1.40E-09,  avg # of iterations =  5.0

     total cpu time spent up to now is     1238.3 secs

     total energy              =   -1286.46377204 Ry
     Harris-Foulkes estimate   =   -1286.46377227 Ry
     estimated scf accuracy    <       0.00000123 Ry

     iteration # 13     ecut=    70.00 Ry     beta= 0.40
     Davidson diagonalization with overlap
     ethr =  1.40E-09,  avg # of iterations =  1.0

     total cpu time spent up to now is     1307.9 secs

     total energy              =   -1286.46377195 Ry
     Harris-Foulkes estimate   =   -1286.46377207 Ry
     estimated scf accuracy    <       0.00000046 Ry

     iteration # 14     ecut=    70.00 Ry     beta= 0.40
     Davidson diagonalization with overlap
     ethr =  5.99E-10,  avg # of iterations =  4.0

     total cpu time spent up to now is     1406.0 secs

     total energy              =   -1286.46377211 Ry
     Harris-Foulkes estimate   =   -1286.46377219 Ry
     estimated scf accuracy    <       0.00000045 Ry

     iteration # 15     ecut=    70.00 Ry     beta= 0.40
     Davidson diagonalization with overlap
     ethr =  5.93E-10,  avg # of iterations =  1.0

     total cpu time spent up to now is     1476.4 secs

     total energy              =   -1286.46377206 Ry
     Harris-Foulkes estimate   =   -1286.46377212 Ry
     estimated scf accuracy    <       0.00000020 Ry

     iteration # 16     ecut=    70.00 Ry     beta= 0.40
     Davidson diagonalization with overlap
     ethr =  2.66E-10,  avg # of iterations =  3.1

     total cpu time spent up to now is     1559.9 secs

     End of self-consistent calculation

          k = 0.0000 0.0000 0.0000 ( 15101 PWs)   bands (ev):

   -10.3579 -10.3566 -10.2457 -10.2457 -10.2445 -10.2445 -10.1924 -10.1924
   -10.1913 -10.1913 -10.1910 -10.1910 -10.1898 -10.1898 -10.0475 -10.0475
   -10.0463 -10.0463 -10.0316 -10.0301  -9.1972  -9.1617  -9.0042  -8.9656
    -2.0227  -1.9142   0.4938   0.8675   3.3567   3.3567   3.3744   3.3744
     3.4782   3.4782   3.4974   3.4974   3.5442   4.3189   5.5540   6.1066
     6.7988   6.8020   8.6542   8.6542   8.6686   8.6686

     occupation numbers 
     1.0000   1.0000   1.0000   1.0000   1.0000   1.0000   1.0000   1.0000
     1.0000   1.0000   1.0000   1.0000   1.0000   1.0000   1.0000   1.0000
     1.0000   1.0000   1.0000   1.0000   1.0000   1.0000   1.0000   1.0000
     1.0000   1.0000   1.0000   1.0000   1.0004   1.0004   1.0005   1.0005
     1.0026   1.0026   1.0033   1.0033   1.0061   0.4495   0.0000   0.0000
     0.0000   0.0000   0.0000   0.0000   0.0000   0.0000

          k =-0.0000 0.0000 0.1073 ( 15042 PWs)   bands (ev):

   -10.3579 -10.3566 -10.2457 -10.2457 -10.2445 -10.2445 -10.1924 -10.1924
   -10.1913 -10.1913 -10.1910 -10.1910 -10.1898 -10.1898 -10.0475 -10.0475
   -10.0463 -10.0463 -10.0313 -10.0303  -9.1813  -9.1810  -8.9833  -8.9830
    -1.9714  -1.9697   0.6715   0.6722   3.3648   3.3648   3.3651   3.3651
     3.4884   3.4884   3.4887   3.4887   3.8954   3.8962   5.8746   5.8780
     6.8012   6.8022   8.6607   8.6607   8.6620   8.6620

     occupation numbers 
     1.0000   1.0000   1.0000   1.0000   1.0000   1.0000   1.0000   1.0000
     1.0000   1.0000   1.0000   1.0000   1.0000   1.0000   1.0000   1.0000
     1.0000   1.0000   1.0000   1.0000   1.0000   1.0000   1.0000   1.0000
     1.0000   1.0000   1.0000   1.0000   1.0005   1.0005   1.0005   1.0005
     1.0030   1.0030   1.0030   1.0030   1.0823   1.0824   0.0000   0.0000
     0.0000   0.0000   0.0000   0.0000   0.0000   0.0000

          k =-0.1429 0.0825 0.0000 ( 15043 PWs)   bands (ev):

   -10.3597 -10.3584 -10.2843 -10.2830 -10.2434 -10.2422 -10.2360 -10.2346
   -10.1940 -10.1928 -10.1866 -10.1854 -10.1852 -10.1841 -10.0750 -10.0738
   -10.0487 -10.0475  -9.9901  -9.9891  -8.9880  -8.9545  -8.8115  -8.7748
    -1.9355  -1.8505   0.4607   0.6693   2.0841   2.2067   2.2780   2.5413
     3.0513   3.0766   3.2076   3.2355   3.7705   4.2776   6.6025   6.9187
     7.3614   7.4310   8.3392   8.4626   8.9698   8.9898

     occupation numbers 
     1.0000   1.0000   1.0000   1.0000   1.0000   1.0000   1.0000   1.0000
     1.0000   1.0000   1.0000   1.0000   1.0000   1.0000   1.0000   1.0000
     1.0000   1.0000   1.0000   1.0000   1.0000   1.0000   1.0000   1.0000
     1.0000   1.0000   1.0000   1.0000   1.0000   1.0000   1.0000   1.0000
     1.0000   1.0000   1.0000   1.0000   1.0505   0.5508   0.0000   0.0000
     0.0000   0.0000   0.0000   0.0000   0.0000   0.0000

          k =-0.1429 0.0825 0.1073 ( 15056 PWs)   bands (ev):

   -10.3597 -10.3585 -10.2842 -10.2830 -10.2434 -10.2422 -10.2358 -10.2348
   -10.1940 -10.1928 -10.1866 -10.1854 -10.1852 -10.1841 -10.0750 -10.0738
   -10.0487 -10.0475  -9.9901  -9.9891  -8.9731  -8.9727  -8.7917  -8.7913
    -1.8950  -1.8934   0.5644   0.5648   2.1272   2.1273   2.4137   2.4149
     3.0627   3.0630   3.2225   3.2228   4.0306   4.0322   6.7574   6.7579
     7.4058   7.4082   8.3955   8.3966   8.9790   8.9804

     occupation numbers 
     1.0000   1.0000   1.0000   1.0000   1.0000   1.0000   1.0000   1.0000
     1.0000   1.0000   1.0000   1.0000   1.0000   1.0000   1.0000   1.0000
     1.0000   1.0000   1.0000   1.0000   1.0000   1.0000   1.0000   1.0000
     1.0000   1.0000   1.0000   1.0000   1.0000   1.0000   1.0000   1.0000
     1.0000   1.0000   1.0000   1.0000   1.0357   1.0342   0.0000   0.0000
     0.0000   0.0000   0.0000   0.0000   0.0000   0.0000

          k =-0.2857 0.1650 0.0000 ( 15017 PWs)   bands (ev):

   -10.3872 -10.3859 -10.3217 -10.3203 -10.3068 -10.3053 -10.2410 -10.2397
   -10.2009 -10.1997 -10.1739 -10.1727 -10.1686 -10.1675 -10.0881 -10.0870
   -10.0515 -10.0504  -9.9567  -9.9556  -8.4805  -8.4521  -8.3399  -8.3093
    -1.9749  -1.9583  -0.4426  -0.4112   0.8439   1.0218   1.7522   2.1924
     2.4984   2.5295   2.7052   2.7407   3.6058   3.7801   6.4645   6.7277
     6.7483   6.8278   8.8937   9.0659   9.0695   9.1661

     occupation numbers 
     1.0000   1.0000   1.0000   1.0000   1.0000   1.0000   1.0000   1.0000
     1.0000   1.0000   1.0000   1.0000   1.0000   1.0000   1.0000   1.0000
     1.0000   1.0000   1.0000   1.0000   1.0000   1.0000   1.0000   1.0000
     1.0000   1.0000   1.0000   1.0000   1.0000   1.0000   1.0000   1.0000
     1.0000   1.0000   1.0000   1.0000   1.0124   1.0535   0.0000   0.0000
     0.0000   0.0000   0.0000   0.0000   0.0000   0.0000

          k =-0.2857 0.1650 0.1073 ( 15022 PWs)   bands (ev):

   -10.3871 -10.3860 -10.3217 -10.3204 -10.3065 -10.3056 -10.2410 -10.2397
   -10.2009 -10.1997 -10.1739 -10.1727 -10.1686 -10.1675 -10.0881 -10.0870
   -10.0515 -10.0504  -9.9567  -9.9556  -8.4680  -8.4676  -8.3233  -8.3228
    -1.9672  -1.9660  -0.4272  -0.4270   0.9168   0.9187   1.9748   1.9790
     2.5125   2.5128   2.7241   2.7244   3.7021   3.7070   6.5553   6.5701
     6.8089   6.8319   8.8955   8.9521   9.1428   9.2045

     occupation numbers 
     1.0000   1.0000   1.0000   1.0000   1.0000   1.0000   1.0000   1.0000
     1.0000   1.0000   1.0000   1.0000   1.0000   1.0000   1.0000   1.0000
     1.0000   1.0000   1.0000   1.0000   1.0000   1.0000   1.0000   1.0000
     1.0000   1.0000   1.0000   1.0000   1.0000   1.0000   1.0000   1.0000
     1.0000   1.0000   1.0000   1.0000   1.0309   1.0322   0.0000   0.0000
     0.0000   0.0000   0.0000   0.0000   0.0000   0.0000

          k =-0.4286 0.2474 0.0000 ( 14958 PWs)   bands (ev):

   -10.4232 -10.4219 -10.3488 -10.3476 -10.3241 -10.3227 -10.2409 -10.2397
   -10.2065 -10.2053 -10.1616 -10.1605 -10.1551 -10.1540 -10.0939 -10.0927
   -10.0540 -10.0528  -9.9393  -9.9382  -7.9859  -7.9684  -7.8869  -7.8686
    -2.5028  -2.4885  -1.5062  -1.4830   0.8779   1.0132   2.1355   2.1424
     2.1685   2.3697   2.3784   2.4079   2.8783   2.9778   6.1695   6.2430
     6.3183   6.4413   8.4140   8.4944   8.5804   8.6243

     occupation numbers 
     1.0000   1.0000   1.0000   1.0000   1.0000   1.0000   1.0000   1.0000
     1.0000   1.0000   1.0000   1.0000   1.0000   1.0000   1.0000   1.0000
     1.0000   1.0000   1.0000   1.0000   1.0000   1.0000   1.0000   1.0000
     1.0000   1.0000   1.0000   1.0000   1.0000   1.0000   1.0000   1.0000
     1.0000   1.0000   1.0000   1.0000   1.0000   1.0000   0.0000   0.0000
     0.0000   0.0000   0.0000   0.0000   0.0000   0.0000

          k =-0.4286 0.2474 0.1073 ( 14978 PWs)   bands (ev):

   -10.4231 -10.4220 -10.3486 -10.3477 -10.3241 -10.3227 -10.2409 -10.2397
   -10.2065 -10.2053 -10.1616 -10.1605 -10.1551 -10.1540 -10.0939 -10.0927
   -10.0540 -10.0528  -9.9393  -9.9382  -7.9782  -7.9777  -7.8772  -7.8767
    -2.4960  -2.4953  -1.4947  -1.4944   0.9390   0.9438   2.1506   2.1509
     2.2473   2.2672   2.3899   2.3902   2.9255   2.9464   6.1500   6.1960
     6.3804   6.4506   8.4124   8.4150   8.6286   8.6613

     occupation numbers 
     1.0000   1.0000   1.0000   1.0000   1.0000   1.0000   1.0000   1.0000
     1.0000   1.0000   1.0000   1.0000   1.0000   1.0000   1.0000   1.0000
     1.0000   1.0000   1.0000   1.0000   1.0000   1.0000   1.0000   1.0000
     1.0000   1.0000   1.0000   1.0000   1.0000   1.0000   1.0000   1.0000
     1.0000   1.0000   1.0000   1.0000   1.0000   1.0000   0.0000   0.0000
     0.0000   0.0000   0.0000   0.0000   0.0000   0.0000

          k =-0.2857 0.0000 0.0000 ( 15017 PWs)   bands (ev):

   -10.3748 -10.3735 -10.3171 -10.3158 -10.2887 -10.2872 -10.2428 -10.2415
   -10.1970 -10.1958 -10.1798 -10.1786 -10.1747 -10.1736 -10.0843 -10.0831
   -10.0515 -10.0504  -9.9641  -9.9630  -8.6304  -8.6002  -8.4789  -8.4462
    -1.8972  -1.8621  -0.0225  -0.0192   1.1884   1.3648   1.7848   2.2445
     2.2991   2.3181   2.5614   2.5823   3.7597   4.0225   7.3005   7.3272
     7.3756   7.5845   8.2232   8.4474   9.3515   9.3601

     occupation numbers 
     1.0000   1.0000   1.0000   1.0000   1.0000   1.0000   1.0000   1.0000
     1.0000   1.0000   1.0000   1.0000   1.0000   1.0000   1.0000   1.0000
     1.0000   1.0000   1.0000   1.0000   1.0000   1.0000   1.0000   1.0000
     1.0000   1.0000   1.0000   1.0000   1.0000   1.0000   1.0000   1.0000
     1.0000   1.0000   1.0000   1.0000   1.0472   1.0428   0.0000   0.0000
     0.0000   0.0000   0.0000   0.0000   0.0000   0.0000

          k =-0.2857 0.0000 0.1073 ( 15004 PWs)   bands (ev):

   -10.3747 -10.3736 -10.3171 -10.3158 -10.2885 -10.2875 -10.2427 -10.2415
   -10.1970 -10.1958 -10.1798 -10.1786 -10.1747 -10.1736 -10.0843 -10.0832
   -10.0515 -10.0504  -9.9640  -9.9630  -8.6171  -8.6167  -8.4612  -8.4607
    -1.8804  -1.8791  -0.0210  -0.0209   1.2541   1.2554   2.0226   2.0258
     2.3081   2.3088   2.5717   2.5718   3.9040   3.9067   7.2798   7.2875
     7.5072   7.5175   8.3003   8.3023   9.3240   9.3346

     occupation numbers 
     1.0000   1.0000   1.0000   1.0000   1.0000   1.0000   1.0000   1.0000
     1.0000   1.0000   1.0000   1.0000   1.0000   1.0000   1.0000   1.0000
     1.0000   1.0000   1.0000   1.0000   1.0000   1.0000   1.0000   1.0000
     1.0000   1.0000   1.0000   1.0000   1.0000   1.0000   1.0000   1.0000
     1.0000   1.0000   1.0000   1.0000   1.0830   1.0831   0.0000   0.0000
     0.0000   0.0000   0.0000   0.0000   0.0000   0.0000

          k =-0.4286 0.0825 0.0000 ( 15000 PWs)   bands (ev):

   -10.4109 -10.4096 -10.3376 -10.3363 -10.3246 -10.3232 -10.2447 -10.2435
   -10.2005 -10.1993 -10.1698 -10.1686 -10.1621 -10.1610 -10.0883 -10.0871
   -10.0561 -10.0549  -9.9435  -9.9424  -8.1133  -8.0911  -8.0019  -7.9786
    -2.2354  -2.2226  -1.0832  -1.0592   0.8759   1.0303   1.5802   1.6122
     1.7709   1.8053   2.1212   2.4546   3.3055   3.3592   6.9417   7.0031
     7.1060   7.1272   8.3787   8.6909   9.2149   9.2319

     occupation numbers 
     1.0000   1.0000   1.0000   1.0000   1.0000   1.0000   1.0000   1.0000
     1.0000   1.0000   1.0000   1.0000   1.0000   1.0000   1.0000   1.0000
     1.0000   1.0000   1.0000   1.0000   1.0000   1.0000   1.0000   1.0000
     1.0000   1.0000   1.0000   1.0000   1.0000   1.0000   1.0000   1.0000
     1.0000   1.0000   1.0000   1.0000   1.0002   1.0004   0.0000   0.0000
     0.0000   0.0000   0.0000   0.0000   0.0000   0.0000

          k =-0.4286 0.0825 0.1073 ( 14996 PWs)   bands (ev):

   -10.4108 -10.4097 -10.3374 -10.3365 -10.3246 -10.3232 -10.2447 -10.2435
   -10.2005 -10.1993 -10.1697 -10.1686 -10.1621 -10.1610 -10.0883 -10.0871
   -10.0561 -10.0549  -9.9435  -9.9424  -8.1036  -8.1031  -7.9893  -7.9889
    -2.2295  -2.2287  -1.0713  -1.0710   0.9459   0.9489   1.5841   1.5848
     1.7968   1.7974   2.2881   2.2946   3.3329   3.3398   6.9581   6.9991
     7.0985   7.1379   8.4999   8.5093   9.1699   9.1925

     occupation numbers 
     1.0000   1.0000   1.0000   1.0000   1.0000   1.0000   1.0000   1.0000
     1.0000   1.0000   1.0000   1.0000   1.0000   1.0000   1.0000   1.0000
     1.0000   1.0000   1.0000   1.0000   1.0000   1.0000   1.0000   1.0000
     1.0000   1.0000   1.0000   1.0000   1.0000   1.0000   1.0000   1.0000
     1.0000   1.0000   1.0000   1.0000   1.0003   1.0003   0.0000   0.0000
     0.0000   0.0000   0.0000   0.0000   0.0000   0.0000

          k =-0.5714 0.1650 0.0000 ( 14990 PWs)   bands (ev):

   -10.4273 -10.4262 -10.3557 -10.3546 -10.3240 -10.3227 -10.2461 -10.2449
   -10.2022 -10.2010 -10.1647 -10.1635 -10.1565 -10.1554 -10.0889 -10.0878
   -10.0584 -10.0573  -9.9361  -9.9350  -7.8359  -7.8244  -7.7509  -7.7390
    -2.5571  -2.5512  -1.5845  -1.5701   0.8844   0.8870   1.4960   1.5370
     1.6776   1.7571   2.4118   2.5724   2.7173   2.7574   6.6903   6.8256
     6.8273   6.8528   8.4551   8.5545   8.9572   9.1309

     occupation numbers 
     1.0000   1.0000   1.0000   1.0000   1.0000   1.0000   1.0000   1.0000
     1.0000   1.0000   1.0000   1.0000   1.0000   1.0000   1.0000   1.0000
     1.0000   1.0000   1.0000   1.0000   1.0000   1.0000   1.0000   1.0000
     1.0000   1.0000   1.0000   1.0000   1.0000   1.0000   1.0000   1.0000
     1.0000   1.0000   1.0000   1.0000   1.0000   1.0000   0.0000   0.0000
     0.0000   0.0000   0.0000   0.0000   0.0000   0.0000

          k =-0.5714 0.1650 0.1073 ( 14990 PWs)   bands (ev):

   -10.4273 -10.4262 -10.3557 -10.3547 -10.3240 -10.3227 -10.2461 -10.2449
   -10.2022 -10.2010 -10.1647 -10.1635 -10.1565 -10.1554 -10.0889 -10.0878
   -10.0584 -10.0573  -9.9361  -9.9350  -7.8308  -7.8303  -7.7448  -7.7442
    -2.5545  -2.5539  -1.5775  -1.5772   0.8851   0.8878   1.5142   1.5164
     1.7128   1.7188   2.4593   2.4934   2.7409   2.7724   6.6581   6.7154
     6.8817   6.9410   8.4919   8.5012   8.9778   9.0602

     occupation numbers 
     1.0000   1.0000   1.0000   1.0000   1.0000   1.0000   1.0000   1.0000
     1.0000   1.0000   1.0000   1.0000   1.0000   1.0000   1.0000   1.0000
     1.0000   1.0000   1.0000   1.0000   1.0000   1.0000   1.0000   1.0000
     1.0000   1.0000   1.0000   1.0000   1.0000   1.0000   1.0000   1.0000
     1.0000   1.0000   1.0000   1.0000   1.0000   1.0000   0.0000   0.0000
     0.0000   0.0000   0.0000   0.0000   0.0000   0.0000

          k =-0.5714 0.0000 0.0000 ( 14998 PWs)   bands (ev):

   -10.4256 -10.4245 -10.3568 -10.3558 -10.3242 -10.3228 -10.2512 -10.2500
   -10.1951 -10.1939 -10.1721 -10.1709 -10.1597 -10.1586 -10.0812 -10.0801
   -10.0647 -10.0635  -9.9354  -9.9343  -7.7744  -7.7648  -7.6945  -7.6847
    -2.4583  -2.4534  -1.4322  -1.4291   0.4568   0.4677   0.8431   0.8573
     1.5983   1.7574   2.4802   2.6340   2.7107   2.7827   6.7538   6.8217
     7.1889   7.2102   8.3412   8.7367   9.6362   9.6524

     occupation numbers 
     1.0000   1.0000   1.0000   1.0000   1.0000   1.0000   1.0000   1.0000
     1.0000   1.0000   1.0000   1.0000   1.0000   1.0000   1.0000   1.0000
     1.0000   1.0000   1.0000   1.0000   1.0000   1.0000   1.0000   1.0000
     1.0000   1.0000   1.0000   1.0000   1.0000   1.0000   1.0000   1.0000
     1.0000   1.0000   1.0000   1.0000   1.0000   1.0000   0.0000   0.0000
     0.0000   0.0000   0.0000   0.0000   0.0000   0.0000

          k =-0.5714 0.0000 0.1073 ( 14988 PWs)   bands (ev):

   -10.4256 -10.4245 -10.3568 -10.3558 -10.3242 -10.3228 -10.2512 -10.2500
   -10.1950 -10.1939 -10.1721 -10.1709 -10.1597 -10.1586 -10.0812 -10.0801
   -10.0647 -10.0635  -9.9354  -9.9343  -7.7701  -7.7696  -7.6896  -7.6891
    -2.4562  -2.4555  -1.4308  -1.4305   0.4621   0.4630   0.8482   0.8508
     1.6710   1.6726   2.5535   2.5614   2.7473   2.7592   6.7646   6.7843
     7.1998   7.2213   8.5007   8.5518   9.6065   9.7332

     occupation numbers 
     1.0000   1.0000   1.0000   1.0000   1.0000   1.0000   1.0000   1.0000
     1.0000   1.0000   1.0000   1.0000   1.0000   1.0000   1.0000   1.0000
     1.0000   1.0000   1.0000   1.0000   1.0000   1.0000   1.0000   1.0000
     1.0000   1.0000   1.0000   1.0000   1.0000   1.0000   1.0000   1.0000
     1.0000   1.0000   1.0000   1.0000   1.0000   1.0000   0.0000   0.0000
     0.0000   0.0000   0.0000   0.0000   0.0000   0.0000

     the Fermi energy is     4.3398 ev

!    total energy              =   -1286.46377210 Ry
     Harris-Foulkes estimate   =   -1286.46377210 Ry
     estimated scf accuracy    <          6.6E-10 Ry

     The total energy is the sum of the following terms:

     one-electron contribution =    -673.73682770 Ry
     hartree contribution      =     395.19268552 Ry
     xc contribution           =    -271.40744650 Ry
     ewald contribution        =    -291.62302185 Ry
     one-center paw contrib.   =    -444.89220425 Ry
      -> PAW hartree energy AE =     565.85205576 Ry
      -> PAW hartree energy PS =    -558.39763173 Ry
      -> PAW xc energy AE      =    -603.39481763 Ry
      -> PAW xc energy PS      =     151.04818934 Ry
      -> total E_H with PAW    =     402.64710955 Ry
      -> total E_XC with PAW   =    -723.75407479 Ry
     smearing contrib. (-TS)   =       0.00304269 Ry

     convergence has been achieved in  16 iterations

     Forces acting on atoms (cartesian axes, Ry/au):

     atom    1 type  1   force =    -0.00000000    0.00000000   -0.00018703
     atom    2 type  1   force =     0.00000000    0.00000000    0.00018703
     atom    3 type  1   force =    -0.00000000    0.00000000    0.00009676
     atom    4 type  1   force =     0.00000000    0.00000000   -0.00009676
     atom    5 type  2   force =     0.00000000    0.00000000    0.00051725
     atom    6 type  2   force =    -0.00000000    0.00000000   -0.00051725
     atom    7 type  2   force =    -0.00000000   -0.00000000   -0.00059056
     atom    8 type  2   force =     0.00000000    0.00000000    0.00059056
     The non-local contrib.  to forces
     atom    1 type  1   force =    -0.00000000   -0.00000000    0.40441911
     atom    2 type  1   force =    -0.00000000    0.00000000   -0.40441911
     atom    3 type  1   force =    -0.00000000    0.00000000   -0.40428057
     atom    4 type  1   force =    -0.00000000   -0.00000000    0.40428057
     atom    5 type  2   force =    -0.00000000    0.00000000    0.32983105
     atom    6 type  2   force =     0.00000000    0.00000000   -0.32983105
     atom    7 type  2   force =     0.00000000    0.00000000   -0.32980112
     atom    8 type  2   force =     0.00000000    0.00000000    0.32980112
     The ionic contribution  to forces
     atom    1 type  1   force =    -0.00000000    0.00000000   16.72510692
     atom    2 type  1   force =     0.00000000    0.00000000  -16.72510692
     atom    3 type  1   force =     0.00000000   -0.00000000  -16.71862845
     atom    4 type  1   force =    -0.00000000   -0.00000000   16.71862845
     atom    5 type  2   force =     0.00000000   -0.00000000  -13.84527387
     atom    6 type  2   force =    -0.00000000   -0.00000000   13.84527387
     atom    7 type  2   force =     0.00000000    0.00000000   13.85431968
     atom    8 type  2   force =    -0.00000000    0.00000000  -13.85431968
     The local contribution  to forces
     atom    1 type  1   force =    -0.00000000    0.00000000  -17.12062060
     atom    2 type  1   force =    -0.00000000    0.00000000   17.12062060
     atom    3 type  1   force =    -0.00000000   -0.00000008   17.11387862
     atom    4 type  1   force =    -0.00000000   -0.00000008  -17.11387862
     atom    5 type  2   force =    -0.00000000   -0.00000000   13.55281428
     atom    6 type  2   force =    -0.00000000   -0.00000000  -13.55281428
     atom    7 type  2   force =     0.00000000    0.00000000  -13.56194436
     atom    8 type  2   force =     0.00000000    0.00000000   13.56194436
     The core correction contribution to forces
     atom    1 type  1   force =    -0.00000000    0.00000000   -0.00911459
     atom    2 type  1   force =    -0.00000000    0.00000000    0.00911459
     atom    3 type  1   force =    -0.00000000   -0.00000001    0.00912385
     atom    4 type  1   force =    -0.00000000   -0.00000001   -0.00912385
     atom    5 type  2   force =    -0.00000000    0.00000000   -0.03684645
     atom    6 type  2   force =    -0.00000000    0.00000000    0.03684645
     atom    7 type  2   force =     0.00000000   -0.00000000    0.03684197
     atom    8 type  2   force =     0.00000000   -0.00000000   -0.03684197
     The Hubbard contrib.    to forces
     atom    1 type  1   force =     0.00000000    0.00000000    0.00000000
     atom    2 type  1   force =     0.00000000    0.00000000    0.00000000
     atom    3 type  1   force =     0.00000000    0.00000000    0.00000000
     atom    4 type  1   force =     0.00000000    0.00000000    0.00000000
     atom    5 type  2   force =     0.00000000    0.00000000    0.00000000
     atom    6 type  2   force =     0.00000000    0.00000000    0.00000000
     atom    7 type  2   force =     0.00000000    0.00000000    0.00000000
     atom    8 type  2   force =     0.00000000    0.00000000    0.00000000
     The SCF correction term to forces
     atom    1 type  1   force =    -0.00000000   -0.00000000    0.00002214
     atom    2 type  1   force =    -0.00000000   -0.00000000   -0.00002214
     atom    3 type  1   force =    -0.00000000    0.00000000    0.00000331
     atom    4 type  1   force =    -0.00000000    0.00000000   -0.00000331
     atom    5 type  2   force =     0.00000000    0.00000000   -0.00000776
     atom    6 type  2   force =     0.00000000    0.00000000    0.00000776
     atom    7 type  2   force =    -0.00000000   -0.00000000   -0.00000672
     atom    8 type  2   force =    -0.00000000   -0.00000000    0.00000672

     Total force =     0.001149     Total SCF correction =     0.000035


     Computing stress (Cartesian axis) and pressure

          total   stress  (Ry/bohr**3)                   (kbar)     P=   -1.83
  -0.00000999  -0.00000000   0.00000000         -1.47     -0.00      0.00
  -0.00000000  -0.00000999   0.00000000         -0.00     -1.47      0.00
   0.00000000   0.00000000  -0.00001736          0.00      0.00     -2.55

     kinetic stress (kbar)   5816.07      0.00     -0.00
                                0.00   5816.07      0.00
                               -0.00      0.00   5929.24

     local   stress (kbar) -20200.73      0.00      0.00
                                0.00 -20200.73      0.00
                                0.00      0.00  15832.26

     nonloc. stress (kbar)   2814.49     -0.00      0.00
                                0.00   2814.49      0.00
                                0.00     -0.00   2852.27

     hartree stress (kbar)  18470.16      0.00     -0.00
                                0.00  18470.16     -0.00
                               -0.00     -0.00   1371.34

     exc-cor stress (kbar)  11520.82     -0.00     -0.00
                               -0.00  11520.82     -0.00
                               -0.00     -0.00  11520.47

     corecor stress (kbar) -15359.45      0.00      0.00
                                0.00 -15359.45      0.00
                                0.00      0.00 -15362.62

     ewald   stress (kbar)  -3062.83     -0.00     -0.00
                               -0.00  -3062.83     -0.00
                               -0.00     -0.00 -22145.52

     hubbard stress (kbar)      0.00      0.00      0.00
                                0.00      0.00      0.00
                                0.00      0.00      0.00

     london  stress (kbar)      0.00      0.00      0.00
                                0.00      0.00      0.00
                                0.00      0.00      0.00

     DFT-D3  stress (kbar)      0.00      0.00      0.00
                                0.00      0.00      0.00
                                0.00      0.00      0.00

     XDM     stress (kbar)      0.00      0.00      0.00
                                0.00      0.00      0.00
                                0.00      0.00      0.00

     dft-nl  stress (kbar)      0.00      0.00      0.00
                                0.00      0.00      0.00
                                0.00      0.00      0.00

     TS-vdW  stress (kbar)      0.00      0.00      0.00
                                0.00      0.00      0.00
                                0.00      0.00      0.00



     Writing output data file aiida.save/

     init_run     :     34.78s CPU     35.88s WALL (       1 calls)
     electrons    :   1494.29s CPU   1523.09s WALL (       1 calls)
     forces       :     22.57s CPU     23.24s WALL (       1 calls)
     stress       :     36.79s CPU     38.98s WALL (       1 calls)

     Called by init_run:
     wfcinit      :     28.46s CPU     28.69s WALL (       1 calls)
     wfcinit:atom :      0.14s CPU      0.14s WALL (      16 calls)
     wfcinit:wfcr :     27.37s CPU     27.58s WALL (      16 calls)
     potinit      :      1.62s CPU      1.79s WALL (       1 calls)
     hinit0       :      1.72s CPU      1.79s WALL (       1 calls)

     Called by electrons:
     c_bands      :   1236.38s CPU   1245.91s WALL (      17 calls)
     sum_band     :    195.24s CPU    205.25s WALL (      17 calls)
     v_of_rho     :      8.03s CPU      8.21s WALL (      17 calls)
     v_h          :      0.48s CPU      0.49s WALL (      17 calls)
     v_xc         :      8.47s CPU      8.71s WALL (      19 calls)
     newd         :     44.07s CPU     53.65s WALL (      17 calls)
     PAW_pot      :     12.69s CPU     12.72s WALL (      17 calls)
     mix_rho      :      1.22s CPU      1.23s WALL (      17 calls)

     Called by c_bands:
     init_us_2    :      6.36s CPU      6.42s WALL (     592 calls)
     cegterg      :   1201.03s CPU   1210.37s WALL (     272 calls)

     Called by sum_band:
     sum_band:bec :      0.07s CPU      0.07s WALL (     272 calls)
     addusdens    :     48.55s CPU     58.24s WALL (      17 calls)

     Called by *egterg:
     h_psi        :    718.03s CPU    721.55s WALL (    1311 calls)
     s_psi        :    154.61s CPU    155.09s WALL (    1311 calls)
     g_psi        :      2.29s CPU      2.31s WALL (    1023 calls)
     cdiaghg      :     10.19s CPU     10.34s WALL (    1279 calls)
     cegterg:over :    142.66s CPU    142.83s WALL (    1023 calls)
     cegterg:upda :     95.48s CPU     97.17s WALL (    1023 calls)
     cegterg:last :     58.94s CPU     59.02s WALL (     290 calls)

     Called by h_psi:
     h_psi:pot    :    715.81s CPU    717.47s WALL (    1311 calls)
     h_psi:calbec :    158.56s CPU    158.70s WALL (    1311 calls)
     vloc_psi     :    402.11s CPU    403.50s WALL (    1311 calls)
     add_vuspsi   :    155.13s CPU    155.26s WALL (    1311 calls)

     General routines
     calbec       :    233.40s CPU    233.66s WALL (    1663 calls)
     fft          :      4.98s CPU      5.16s WALL (     245 calls)
     ffts         :      0.30s CPU      0.30s WALL (      34 calls)
     fftw         :    430.76s CPU    432.19s WALL (   81812 calls)
     interpolate  :      0.52s CPU      0.52s WALL (      17 calls)

     Parallel routines

     PAW routines
     PAW_pot      :     12.69s CPU     12.72s WALL (      17 calls)
     PAW_symme    :      0.01s CPU      0.01s WALL (      34 calls)

     PWSCF        :  26m29.40s CPU  27m 2.61s WALL


   This run was terminated on:  16:56:38  25Apr2021            

=------------------------------------------------------------------------------=
   JOB DONE.
=------------------------------------------------------------------------------=
